 written on 28Feb2024 at 00:18:44 
           9
         343
    3    2    1    1    2    2    1    1    1    1    1    2    2    1    1
    1    1    1    1    1    1    2    2    1    1    1    1    1    1    1
    1    1    1    1    2    2    1    1    1    1    1    1    1    1    1
    1    1    1    1    1    2    3    1    1    1    1    1    1    1    1
    1    1    1    1    1    1    1    1    1    3    1    1    1    1    1
    1    1    1    1    1    1    1    1    1    1    1    1    1    2    1
    1    1    1    1    1    1    1    1    1    1    1    1    1    1    1
    1    2    1    1    1    1    1    1    1    1    1    1    1    1    1
    1    1    1    1    1    2    1    1    1    1    1    1    1    1    1
    1    1    1    1    1    1    1    1    2    1    1    1    1    1    1
    1    1    1    1    1    1    1    1    1    1    1    1    2    1    1
    1    1    1    1    1    1    1    1    1    1    1    1    1    1    1
    2    1    1    1    1    1    1    1    1    1    1    1    1    1    1
    1    1    1    1    2    1    1    1    1    1    1    1    1    1    1
    1    1    1    1    1    1    1    2    1    1    1    1    1    1    1
    1    1    1    1    1    1    1    1    1    1    1    2    1    1    1
    1    1    1    1    1    1    1    1    1    1    1    1    1    1    2
    1    1    1    1    1    1    1    1    1    1    1    1    1    1    1
    1    1    1    3    1    1    1    1    1    1    1    1    1    1    1
    1    1    1    1    1    1    3    2    1    1    1    1    1    1    1
    1    1    1    1    1    1    1    2    2    1    1    1    1    1    1
    1    1    1    1    1    2    2    1    1    1    1    1    1    1    1
    2    2    1    1    1    1    1    2    2    1    1    2    3
  -12   -6    0    1    1    0.000103    0.000000
  -12   -6    0    2    1   -0.000623   -0.000000
  -12   -6    0    3    1    0.000000   -0.000000
  -12   -6    0    4    1   -0.000008    0.000000
  -12   -6    0    5    1    0.000003    0.000000
  -12   -6    0    6    1    0.000000    0.000000
  -12   -6    0    7    1   -0.000000   -0.000000
  -12   -6    0    8    1    0.000002   -0.000000
  -12   -6    0    9    1    0.000000   -0.000000
  -12   -6    0    1    2    0.000623    0.000000
  -12   -6    0    2    2    0.001296    0.000000
  -12   -6    0    3    2   -0.000000   -0.000000
  -12   -6    0    4    2   -0.000003   -0.000000
  -12   -6    0    5    2    0.000162   -0.000000
  -12   -6    0    6    2   -0.000000   -0.000000
  -12   -6    0    7    2   -0.000000   -0.000000
  -12   -6    0    8    2    0.000000   -0.000000
  -12   -6    0    9    2   -0.000000    0.000000
  -12   -6    0    1    3   -0.000000   -0.000000
  -12   -6    0    2    3    0.000000    0.000000
  -12   -6    0    3    3   -0.000663   -0.000000
  -12   -6    0    4    3   -0.000000    0.000000
  -12   -6    0    5    3   -0.000000    0.000000
  -12   -6    0    6    3   -0.000032    0.000000
  -12   -6    0    7    3   -0.000000    0.000000
  -12   -6    0    8    3    0.000000   -0.000000
  -12   -6    0    9    3    0.000097    0.000000
  -12   -6    0    1    4    0.000008    0.000000
  -12   -6    0    2    4   -0.000003    0.000000
  -12   -6    0    3    4    0.000000   -0.000000
  -12   -6    0    4    4   -0.000663   -0.000000
  -12   -6    0    5    4    0.000001   -0.000000
  -12   -6    0    6    4    0.000000    0.000000
  -12   -6    0    7    4   -0.000031   -0.000000
  -12   -6    0    8    4    0.000097   -0.000000
  -12   -6    0    9    4    0.000000   -0.000000
  -12   -6    0    1    5    0.000003   -0.000000
  -12   -6    0    2    5   -0.000162   -0.000000
  -12   -6    0    3    5   -0.000000    0.000000
  -12   -6    0    4    5   -0.000001   -0.000000
  -12   -6    0    5    5   -0.000007   -0.000000
  -12   -6    0    6    5    0.000000   -0.000000
  -12   -6    0    7    5    0.000001    0.000000
  -12   -6    0    8    5    0.000000    0.000000
  -12   -6    0    9    5    0.000000   -0.000000
  -12   -6    0    1    6   -0.000000   -0.000000
  -12   -6    0    2    6   -0.000000    0.000000
  -12   -6    0    3    6    0.000032   -0.000000
  -12   -6    0    4    6    0.000000    0.000000
  -12   -6    0    5    6   -0.000000   -0.000000
  -12   -6    0    6    6   -0.000020   -0.000000
  -12   -6    0    7    6   -0.000000   -0.000000
  -12   -6    0    8    6   -0.000000   -0.000000
  -12   -6    0    9    6    0.000008   -0.000000
  -12   -6    0    1    7   -0.000000   -0.000000
  -12   -6    0    2    7    0.000000    0.000000
  -12   -6    0    3    7   -0.000000    0.000000
  -12   -6    0    4    7    0.000031    0.000000
  -12   -6    0    5    7    0.000001   -0.000000
  -12   -6    0    6    7   -0.000000   -0.000000
  -12   -6    0    7    7   -0.000021    0.000000
  -12   -6    0    8    7    0.000008    0.000000
  -12   -6    0    9    7    0.000000   -0.000000
  -12   -6    0    1    8    0.000002    0.000000
  -12   -6    0    2    8   -0.000000    0.000000
  -12   -6    0    3    8    0.000000   -0.000000
  -12   -6    0    4    8   -0.000097    0.000000
  -12   -6    0    5    8    0.000000   -0.000000
  -12   -6    0    6    8    0.000000    0.000000
  -12   -6    0    7    8    0.000008   -0.000000
  -12   -6    0    8    8    0.000021   -0.000000
  -12   -6    0    9    8    0.000000    0.000000
  -12   -6    0    1    9   -0.000000    0.000000
  -12   -6    0    2    9   -0.000000    0.000000
  -12   -6    0    3    9   -0.000097    0.000000
  -12   -6    0    4    9    0.000000   -0.000000
  -12   -6    0    5    9   -0.000000   -0.000000
  -12   -6    0    6    9    0.000008    0.000000
  -12   -6    0    7    9    0.000000    0.000000
  -12   -6    0    8    9    0.000000    0.000000
  -12   -6    0    9    9    0.000020    0.000000
  -11   -7    0    1    1   -0.000062    0.000000
  -11   -7    0    2    1   -0.000243    0.000000
  -11   -7    0    3    1    0.000011    0.000000
  -11   -7    0    4    1   -0.000008    0.000000
  -11   -7    0    5    1   -0.000003   -0.000000
  -11   -7    0    6    1   -0.000009   -0.000000
  -11   -7    0    7    1    0.000004   -0.000000
  -11   -7    0    8    1    0.000002   -0.000000
  -11   -7    0    9    1   -0.000002   -0.000000
  -11   -7    0    1    2    0.000243    0.000000
  -11   -7    0    2    2   -0.000703    0.000000
  -11   -7    0    3    2   -0.001183   -0.000000
  -11   -7    0    4    2    0.000684    0.000000
  -11   -7    0    5    2   -0.000027   -0.000000
  -11   -7    0    6    2    0.000106    0.000000
  -11   -7    0    7    2   -0.000061   -0.000000
  -11   -7    0    8    2    0.000078   -0.000000
  -11   -7    0    9    2   -0.000134   -0.000000
  -11   -7    0    1    3   -0.000011    0.000000
  -11   -7    0    2    3   -0.001183    0.000000
  -11   -7    0    3    3   -0.000178   -0.000000
  -11   -7    0    4    3    0.000251    0.000000
  -11   -7    0    5    3   -0.000043    0.000000
  -11   -7    0    6    3    0.000004   -0.000000
  -11   -7    0    7    3   -0.000009    0.000000
  -11   -7    0    8    3   -0.000007    0.000000
  -11   -7    0    9    3   -0.000010   -0.000000
  -11   -7    0    1    4    0.000008    0.000000
  -11   -7    0    2    4    0.000684   -0.000000
  -11   -7    0    3    4    0.000251   -0.000000
  -11   -7    0    4    4    0.000109   -0.000000
  -11   -7    0    5    4    0.000025    0.000000
  -11   -7    0    6    4   -0.000005    0.000000
  -11   -7    0    7    4   -0.000005   -0.000000
  -11   -7    0    8    4   -0.000017   -0.000000
  -11   -7    0    9    4   -0.000006    0.000000
  -11   -7    0    1    5   -0.000003   -0.000000
  -11   -7    0    2    5    0.000027    0.000000
  -11   -7    0    3    5    0.000043    0.000000
  -11   -7    0    4    5   -0.000025   -0.000000
  -11   -7    0    5    5   -0.000001   -0.000000
  -11   -7    0    6    5   -0.000002   -0.000000
  -11   -7    0    7    5    0.000001   -0.000000
  -11   -7    0    8    5   -0.000001   -0.000000
  -11   -7    0    9    5    0.000001   -0.000000
  -11   -7    0    1    6   -0.000009   -0.000000
  -11   -7    0    2    6   -0.000106    0.000000
  -11   -7    0    3    6   -0.000004   -0.000000
  -11   -7    0    4    6    0.000005    0.000000
  -11   -7    0    5    6   -0.000002    0.000000
  -11   -7    0    6    6   -0.000006   -0.000000
  -11   -7    0    7    6   -0.000010    0.000000
  -11   -7    0    8    6    0.000008   -0.000000
  -11   -7    0    9    6    0.000004    0.000000
  -11   -7    0    1    7    0.000004    0.000000
  -11   -7    0    2    7    0.000061   -0.000000
  -11   -7    0    3    7    0.000009    0.000000
  -11   -7    0    4    7    0.000005   -0.000000
  -11   -7    0    5    7    0.000001   -0.000000
  -11   -7    0    6    7   -0.000010    0.000000
  -11   -7    0    7    7   -0.000018   -0.000000
  -11   -7    0    8    7    0.000014    0.000000
  -11   -7    0    9    7    0.000009    0.000000
  -11   -7    0    1    8    0.000002   -0.000000
  -11   -7    0    2    8   -0.000078   -0.000000
  -11   -7    0    3    8    0.000007   -0.000000
  -11   -7    0    4    8    0.000017   -0.000000
  -11   -7    0    5    8   -0.000001   -0.000000
  -11   -7    0    6    8    0.000008   -0.000000
  -11   -7    0    7    8    0.000014   -0.000000
  -11   -7    0    8    8    0.000024    0.000000
  -11   -7    0    9    8    0.000008    0.000000
  -11   -7    0    1    9   -0.000002   -0.000000
  -11   -7    0    2    9    0.000134    0.000000
  -11   -7    0    3    9    0.000010    0.000000
  -11   -7    0    4    9    0.000006    0.000000
  -11   -7    0    5    9    0.000001    0.000000
  -11   -7    0    6    9    0.000004   -0.000000
  -11   -7    0    7    9    0.000009    0.000000
  -11   -7    0    8    9    0.000008   -0.000000
  -11   -7    0    9    9    0.000015    0.000000
  -11   -6    0    1    1    0.000034   -0.000000
  -11   -6    0    2    1    0.000159   -0.000000
  -11   -6    0    3    1   -0.000019   -0.000000
  -11   -6    0    4    1   -0.000019    0.000000
  -11   -6    0    5    1    0.000014    0.000000
  -11   -6    0    6    1    0.000017    0.000000
  -11   -6    0    7    1   -0.000021    0.000000
  -11   -6    0    8    1    0.000000   -0.000000
  -11   -6    0    9    1   -0.000027    0.000000
  -11   -6    0    1    2   -0.000159   -0.000000
  -11   -6    0    2    2   -0.000425   -0.000000
  -11   -6    0    3    2   -0.000780    0.000000
  -11   -6    0    4    2   -0.000053   -0.000000
  -11   -6    0    5    2   -0.000048    0.000000
  -11   -6    0    6    2   -0.000119    0.000000
  -11   -6    0    7    2   -0.000094    0.000000
  -11   -6    0    8    2    0.000186    0.000000
  -11   -6    0    9    2    0.000159    0.000000
  -11   -6    0    1    3    0.000019   -0.000000
  -11   -6    0    2    3   -0.000780   -0.000000
  -11   -6    0    3    3    0.000187    0.000000
  -11   -6    0    4    3    0.000258    0.000000
  -11   -6    0    5    3   -0.000013    0.000000
  -11   -6    0    6    3   -0.000052    0.000000
  -11   -6    0    7    3   -0.000086    0.000000
  -11   -6    0    8    3    0.000028   -0.000000
  -11   -6    0    9    3   -0.000047   -0.000000
  -11   -6    0    1    4    0.000019    0.000000
  -11   -6    0    2    4   -0.000053    0.000000
  -11   -6    0    3    4    0.000258    0.000000
  -11   -6    0    4    4    0.000234   -0.000000
  -11   -6    0    5    4    0.000036   -0.000000
  -11   -6    0    6    4    0.000050   -0.000000
  -11   -6    0    7    4    0.000017   -0.000000
  -11   -6    0    8    4    0.000032    0.000000
  -11   -6    0    9    4   -0.000008    0.000000
  -11   -6    0    1    5    0.000014   -0.000000
  -11   -6    0    2    5    0.000048   -0.000000
  -11   -6    0    3    5    0.000013    0.000000
  -11   -6    0    4    5   -0.000036   -0.000000
  -11   -6    0    5    5   -0.000000   -0.000000
  -11   -6    0    6    5    0.000010   -0.000000
  -11   -6    0    7    5    0.000001    0.000000
  -11   -6    0    8    5   -0.000002    0.000000
  -11   -6    0    9    5   -0.000011   -0.000000
  -11   -6    0    1    6    0.000017    0.000000
  -11   -6    0    2    6    0.000119   -0.000000
  -11   -6    0    3    6    0.000052    0.000000
  -11   -6    0    4    6   -0.000050   -0.000000
  -11   -6    0    5    6    0.000010   -0.000000
  -11   -6    0    6    6    0.000020    0.000000
  -11   -6    0    7    6    0.000005   -0.000000
  -11   -6    0    8    6   -0.000000    0.000000
  -11   -6    0    9    6   -0.000008    0.000000
  -11   -6    0    1    7   -0.000021   -0.000000
  -11   -6    0    2    7    0.000094   -0.000000
  -11   -6    0    3    7    0.000086    0.000000
  -11   -6    0    4    7   -0.000017   -0.000000
  -11   -6    0    5    7    0.000001   -0.000000
  -11   -6    0    6    7    0.000005   -0.000000
  -11   -6    0    7    7   -0.000008    0.000000
  -11   -6    0    8    7   -0.000000    0.000000
  -11   -6    0    9    7   -0.000005   -0.000000
  -11   -6    0    1    8    0.000000    0.000000
  -11   -6    0    2    8   -0.000186    0.000000
  -11   -6    0    3    8   -0.000028   -0.000000
  -11   -6    0    4    8   -0.000032    0.000000
  -11   -6    0    5    8   -0.000002   -0.000000
  -11   -6    0    6    8   -0.000000    0.000000
  -11   -6    0    7    8   -0.000000   -0.000000
  -11   -6    0    8    8   -0.000000   -0.000000
  -11   -6    0    9    8    0.000006    0.000000
  -11   -6    0    1    9   -0.000027   -0.000000
  -11   -6    0    2    9   -0.000159    0.000000
  -11   -6    0    3    9    0.000047   -0.000000
  -11   -6    0    4    9    0.000008    0.000000
  -11   -6    0    5    9   -0.000011    0.000000
  -11   -6    0    6    9   -0.000008   -0.000000
  -11   -6    0    7    9   -0.000005    0.000000
  -11   -6    0    8    9    0.000006    0.000000
  -11   -6    0    9    9   -0.000002   -0.000000
  -11   -5    0    1    1    0.000034    0.000000
  -11   -5    0    2    1    0.000162    0.000000
  -11   -5    0    3    1   -0.000026   -0.000000
  -11   -5    0    4    1   -0.000010   -0.000000
  -11   -5    0    5    1    0.000013    0.000000
  -11   -5    0    6    1   -0.000009    0.000000
  -11   -5    0    7    1    0.000024   -0.000000
  -11   -5    0    8    1   -0.000023    0.000000
  -11   -5    0    9    1   -0.000014   -0.000000
  -11   -5    0    1    2   -0.000162   -0.000000
  -11   -5    0    2    2   -0.000428   -0.000000
  -11   -5    0    3    2   -0.000436    0.000000
  -11   -5    0    4    2   -0.000648    0.000000
  -11   -5    0    5    2   -0.000048    0.000000
  -11   -5    0    6    2   -0.000141   -0.000000
  -11   -5    0    7    2   -0.000056    0.000000
  -11   -5    0    8    2    0.000045    0.000000
  -11   -5    0    9    2    0.000241   -0.000000
  -11   -5    0    1    3    0.000026   -0.000000
  -11   -5    0    2    3   -0.000436   -0.000000
  -11   -5    0    3    3    0.000444    0.000000
  -11   -5    0    4    3    0.000109   -0.000000
  -11   -5    0    5    3    0.000022    0.000000
  -11   -5    0    6    3   -0.000015    0.000000
  -11   -5    0    7    3    0.000027   -0.000000
  -11   -5    0    8    3   -0.000046    0.000000
  -11   -5    0    9    3    0.000021   -0.000000
  -11   -5    0    1    4    0.000010   -0.000000
  -11   -5    0    2    4   -0.000648   -0.000000
  -11   -5    0    3    4    0.000109    0.000000
  -11   -5    0    4    4   -0.000020    0.000000
  -11   -5    0    5    4   -0.000030    0.000000
  -11   -5    0    6    4   -0.000106    0.000000
  -11   -5    0    7    4   -0.000018   -0.000000
  -11   -5    0    8    4   -0.000039    0.000000
  -11   -5    0    9    4   -0.000010   -0.000000
  -11   -5    0    1    5    0.000013   -0.000000
  -11   -5    0    2    5    0.000048   -0.000000
  -11   -5    0    3    5   -0.000022    0.000000
  -11   -5    0    4    5    0.000030    0.000000
  -11   -5    0    5    5   -0.000000    0.000000
  -11   -5    0    6    5    0.000006   -0.000000
  -11   -5    0    7    5    0.000009   -0.000000
  -11   -5    0    8    5   -0.000008   -0.000000
  -11   -5    0    9    5   -0.000007   -0.000000
  -11   -5    0    1    6   -0.000009   -0.000000
  -11   -5    0    2    6    0.000141    0.000000
  -11   -5    0    3    6    0.000016    0.000000
  -11   -5    0    4    6    0.000106    0.000000
  -11   -5    0    5    6    0.000006    0.000000
  -11   -5    0    6    6    0.000004   -0.000000
  -11   -5    0    7    6    0.000014   -0.000000
  -11   -5    0    8    6   -0.000007    0.000000
  -11   -5    0    9    6   -0.000005   -0.000000
  -11   -5    0    1    7    0.000024    0.000000
  -11   -5    0    2    7    0.000056    0.000000
  -11   -5    0    3    7   -0.000027   -0.000000
  -11   -5    0    4    7    0.000018   -0.000000
  -11   -5    0    5    7    0.000009    0.000000
  -11   -5    0    6    7    0.000014    0.000000
  -11   -5    0    7    7    0.000008    0.000000
  -11   -5    0    8    7   -0.000004   -0.000000
  -11   -5    0    9    7   -0.000002   -0.000000
  -11   -5    0    1    8   -0.000023   -0.000000
  -11   -5    0    2    8   -0.000045    0.000000
  -11   -5    0    3    8    0.000046    0.000000
  -11   -5    0    4    8    0.000039    0.000000
  -11   -5    0    5    8   -0.000008    0.000000
  -11   -5    0    6    8   -0.000007   -0.000000
  -11   -5    0    7    8   -0.000004    0.000000
  -11   -5    0    8    8   -0.000007    0.000000
  -11   -5    0    9    8    0.000002   -0.000000
  -11   -5    0    1    9   -0.000014    0.000000
  -11   -5    0    2    9   -0.000241    0.000000
  -11   -5    0    3    9   -0.000021   -0.000000
  -11   -5    0    4    9    0.000010   -0.000000
  -11   -5    0    5    9   -0.000007    0.000000
  -11   -5    0    6    9   -0.000005    0.000000
  -11   -5    0    7    9   -0.000002   -0.000000
  -11   -5    0    8    9    0.000002   -0.000000
  -11   -5    0    9    9    0.000004   -0.000000
  -11   -4    0    1    1   -0.000060    0.000000
  -11   -4    0    2    1   -0.000242   -0.000000
  -11   -4    0    3    1   -0.000000    0.000000
  -11   -4    0    4    1    0.000008   -0.000000
  -11   -4    0    5    1   -0.000004    0.000000
  -11   -4    0    6    1    0.000000   -0.000000
  -11   -4    0    7    1   -0.000011   -0.000000
  -11   -4    0    8    1   -0.000001   -0.000000
  -11   -4    0    9    1    0.000000   -0.000000
  -11   -4    0    1    2    0.000242   -0.000000
  -11   -4    0    2    2   -0.000708   -0.000000
  -11   -4    0    3    2   -0.000000    0.000000
  -11   -4    0    4    2   -0.001367    0.000000
  -11   -4    0    5    2   -0.000026   -0.000000
  -11   -4    0    6    2    0.000000    0.000000
  -11   -4    0    7    2    0.000122   -0.000000
  -11   -4    0    8    2   -0.000155   -0.000000
  -11   -4    0    9    2    0.000000    0.000000
  -11   -4    0    1    3   -0.000000    0.000000
  -11   -4    0    2    3    0.000000   -0.000000
  -11   -4    0    3    3    0.000253   -0.000000
  -11   -4    0    4    3    0.000000   -0.000000
  -11   -4    0    5    3    0.000000    0.000000
  -11   -4    0    6    3   -0.000007   -0.000000
  -11   -4    0    7    3    0.000000    0.000000
  -11   -4    0    8    3    0.000000    0.000000
  -11   -4    0    9    3   -0.000019    0.000000
  -11   -4    0    1    4   -0.000008   -0.000000
  -11   -4    0    2    4   -0.001367   -0.000000
  -11   -4    0    3    4   -0.000000    0.000000
  -11   -4    0    4    4   -0.000318   -0.000000
  -11   -4    0    5    4   -0.000049    0.000000
  -11   -4    0    6    4    0.000000    0.000000
  -11   -4    0    7    4    0.000011   -0.000000
  -11   -4    0    8    4   -0.000006   -0.000000
  -11   -4    0    9    4    0.000000   -0.000000
  -11   -4    0    1    5   -0.000004   -0.000000
  -11   -4    0    2    5    0.000026    0.000000
  -11   -4    0    3    5    0.000000    0.000000
  -11   -4    0    4    5    0.000049    0.000000
  -11   -4    0    5    5   -0.000001   -0.000000
  -11   -4    0    6    5   -0.000000    0.000000
  -11   -4    0    7    5   -0.000002   -0.000000
  -11   -4    0    8    5    0.000001   -0.000000
  -11   -4    0    9    5    0.000000   -0.000000
  -11   -4    0    1    6   -0.000000   -0.000000
  -11   -4    0    2    6    0.000000    0.000000
  -11   -4    0    3    6    0.000007   -0.000000
  -11   -4    0    4    6    0.000000    0.000000
  -11   -4    0    5    6    0.000000    0.000000
  -11   -4    0    6    6   -0.000023    0.000000
  -11   -4    0    7    6   -0.000000   -0.000000
  -11   -4    0    8    6    0.000000    0.000000
  -11   -4    0    9    6    0.000019    0.000000
  -11   -4    0    1    7   -0.000011    0.000000
  -11   -4    0    2    7   -0.000122   -0.000000
  -11   -4    0    3    7    0.000000    0.000000
  -11   -4    0    4    7   -0.000011   -0.000000
  -11   -4    0    5    7   -0.000002   -0.000000
  -11   -4    0    6    7    0.000000   -0.000000
  -11   -4    0    7    7    0.000000    0.000000
  -11   -4    0    8    7   -0.000000    0.000000
  -11   -4    0    9    7    0.000000   -0.000000
  -11   -4    0    1    8   -0.000001   -0.000000
  -11   -4    0    2    8    0.000155   -0.000000
  -11   -4    0    3    8    0.000000    0.000000
  -11   -4    0    4    8    0.000006   -0.000000
  -11   -4    0    5    8    0.000001    0.000000
  -11   -4    0    6    8   -0.000000   -0.000000
  -11   -4    0    7    8   -0.000000    0.000000
  -11   -4    0    8    8    0.000010    0.000000
  -11   -4    0    9    8   -0.000000    0.000000
  -11   -4    0    1    9   -0.000000    0.000000
  -11   -4    0    2    9    0.000000   -0.000000
  -11   -4    0    3    9    0.000019    0.000000
  -11   -4    0    4    9    0.000000   -0.000000
  -11   -4    0    5    9    0.000000    0.000000
  -11   -4    0    6    9    0.000019   -0.000000
  -11   -4    0    7    9   -0.000000    0.000000
  -11   -4    0    8    9    0.000000   -0.000000
  -11   -4    0    9    9    0.000029    0.000000
  -10   -8    0    1    1   -0.000022    0.000000
  -10   -8    0    2    1    0.000399   -0.000000
  -10   -8    0    3    1    0.000071   -0.000000
  -10   -8    0    4    1   -0.000036   -0.000000
  -10   -8    0    5    1    0.000009   -0.000000
  -10   -8    0    6    1    0.000001   -0.000000
  -10   -8    0    7    1    0.000000   -0.000000
  -10   -8    0    8    1   -0.000005   -0.000000
  -10   -8    0    9    1    0.000008    0.000000
  -10   -8    0    1    2   -0.000399    0.000000
  -10   -8    0    2    2   -0.000495   -0.000000
  -10   -8    0    3    2   -0.001164   -0.000000
  -10   -8    0    4    2    0.000672    0.000000
  -10   -8    0    5    2   -0.000115   -0.000000
  -10   -8    0    6    2   -0.000042   -0.000000
  -10   -8    0    7    2    0.000024   -0.000000
  -10   -8    0    8    2   -0.000039   -0.000000
  -10   -8    0    9    2    0.000068   -0.000000
  -10   -8    0    1    3   -0.000071   -0.000000
  -10   -8    0    2    3   -0.001164    0.000000
  -10   -8    0    3    3   -0.000403    0.000000
  -10   -8    0    4    3    0.000431    0.000000
  -10   -8    0    5    3   -0.000021   -0.000000
  -10   -8    0    6    3   -0.000014    0.000000
  -10   -8    0    7    3   -0.000020   -0.000000
  -10   -8    0    8    3    0.000021   -0.000000
  -10   -8    0    9    3   -0.000022    0.000000
  -10   -8    0    1    4    0.000036   -0.000000
  -10   -8    0    2    4    0.000672   -0.000000
  -10   -8    0    3    4    0.000431   -0.000000
  -10   -8    0    4    4    0.000088    0.000000
  -10   -8    0    5    4    0.000010    0.000000
  -10   -8    0    6    4   -0.000025   -0.000000
  -10   -8    0    7    4   -0.000039    0.000000
  -10   -8    0    8    4    0.000002   -0.000000
  -10   -8    0    9    4    0.000018    0.000000
  -10   -8    0    1    5    0.000009   -0.000000
  -10   -8    0    2    5    0.000115    0.000000
  -10   -8    0    3    5    0.000021    0.000000
  -10   -8    0    4    5   -0.000010    0.000000
  -10   -8    0    5    5    0.000006    0.000000
  -10   -8    0    6    5   -0.000000   -0.000000
  -10   -8    0    7    5   -0.000000    0.000000
  -10   -8    0    8    5   -0.000002   -0.000000
  -10   -8    0    9    5    0.000004   -0.000000
  -10   -8    0    1    6    0.000001   -0.000000
  -10   -8    0    2    6    0.000042   -0.000000
  -10   -8    0    3    6    0.000014    0.000000
  -10   -8    0    4    6    0.000025    0.000000
  -10   -8    0    5    6   -0.000000   -0.000000
  -10   -8    0    6    6   -0.000005   -0.000000
  -10   -8    0    7    6    0.000002    0.000000
  -10   -8    0    8    6    0.000002    0.000000
  -10   -8    0    9    6    0.000007    0.000000
  -10   -8    0    1    7    0.000000   -0.000000
  -10   -8    0    2    7   -0.000024    0.000000
  -10   -8    0    3    7    0.000020   -0.000000
  -10   -8    0    4    7    0.000039   -0.000000
  -10   -8    0    5    7   -0.000000    0.000000
  -10   -8    0    6    7    0.000002    0.000000
  -10   -8    0    7    7   -0.000002   -0.000000
  -10   -8    0    8    7    0.000010    0.000000
  -10   -8    0    9    7    0.000002    0.000000
  -10   -8    0    1    8   -0.000005   -0.000000
  -10   -8    0    2    8    0.000039    0.000000
  -10   -8    0    3    8   -0.000021   -0.000000
  -10   -8    0    4    8   -0.000002   -0.000000
  -10   -8    0    5    8   -0.000002    0.000000
  -10   -8    0    6    8    0.000002   -0.000000
  -10   -8    0    7    8    0.000010   -0.000000
  -10   -8    0    8    8   -0.000001    0.000000
  -10   -8    0    9    8    0.000008   -0.000000
  -10   -8    0    1    9    0.000008   -0.000000
  -10   -8    0    2    9   -0.000068   -0.000000
  -10   -8    0    3    9    0.000022    0.000000
  -10   -8    0    4    9   -0.000018   -0.000000
  -10   -8    0    5    9    0.000004   -0.000000
  -10   -8    0    6    9    0.000007   -0.000000
  -10   -8    0    7    9    0.000002   -0.000000
  -10   -8    0    8    9    0.000008    0.000000
  -10   -8    0    9    9   -0.000010   -0.000000
  -10   -7    0    1    1   -0.000021    0.000000
  -10   -7    0    2    1    0.000172   -0.000000
  -10   -7    0    3    1    0.000056   -0.000000
  -10   -7    0    4    1   -0.000050    0.000000
  -10   -7    0    5    1   -0.000001   -0.000000
  -10   -7    0    6    1    0.000011    0.000000
  -10   -7    0    7    1    0.000042   -0.000000
  -10   -7    0    8    1    0.000003   -0.000000
  -10   -7    0    9    1    0.000003    0.000000
  -10   -7    0    1    2   -0.000172   -0.000000
  -10   -7    0    2    2   -0.000187   -0.000000
  -10   -7    0    3    2    0.000082   -0.000000
  -10   -7    0    4    2    0.000899    0.000000
  -10   -7    0    5    2   -0.000010    0.000000
  -10   -7    0    6    2   -0.000104   -0.000000
  -10   -7    0    7    2   -0.000123    0.000000
  -10   -7    0    8    2    0.000465    0.000000
  -10   -7    0    9    2    0.000353    0.000000
  -10   -7    0    1    3   -0.000056   -0.000000
  -10   -7    0    2    3    0.000082    0.000000
  -10   -7    0    3    3    0.000060    0.000000
  -10   -7    0    4    3   -0.000029    0.000000
  -10   -7    0    5    3   -0.000030   -0.000000
  -10   -7    0    6    3   -0.000107    0.000000
  -10   -7    0    7    3   -0.000068    0.000000
  -10   -7    0    8    3    0.000022    0.000000
  -10   -7    0    9    3    0.000057    0.000000
  -10   -7    0    1    4    0.000050    0.000000
  -10   -7    0    2    4    0.000899   -0.000000
  -10   -7    0    3    4   -0.000029   -0.000000
  -10   -7    0    4    4   -0.000109   -0.000000
  -10   -7    0    5    4    0.000055    0.000000
  -10   -7    0    6    4   -0.000031    0.000000
  -10   -7    0    7    4    0.000043   -0.000000
  -10   -7    0    8    4   -0.000022    0.000000
  -10   -7    0    9    4   -0.000012    0.000000
  -10   -7    0    1    5   -0.000001    0.000000
  -10   -7    0    2    5    0.000010    0.000000
  -10   -7    0    3    5    0.000030    0.000000
  -10   -7    0    4    5   -0.000055    0.000000
  -10   -7    0    5    5    0.000004    0.000000
  -10   -7    0    6    5    0.000005   -0.000000
  -10   -7    0    7    5    0.000015    0.000000
  -10   -7    0    8    5   -0.000004    0.000000
  -10   -7    0    9    5   -0.000002   -0.000000
  -10   -7    0    1    6    0.000011    0.000000
  -10   -7    0    2    6    0.000104   -0.000000
  -10   -7    0    3    6    0.000107   -0.000000
  -10   -7    0    4    6    0.000031   -0.000000
  -10   -7    0    5    6    0.000005    0.000000
  -10   -7    0    6    6   -0.000001    0.000000
  -10   -7    0    7    6    0.000004    0.000000
  -10   -7    0    8    6   -0.000004   -0.000000
  -10   -7    0    9    6    0.000001   -0.000000
  -10   -7    0    1    7    0.000042   -0.000000
  -10   -7    0    2    7    0.000123    0.000000
  -10   -7    0    3    7    0.000068    0.000000
  -10   -7    0    4    7   -0.000043   -0.000000
  -10   -7    0    5    7    0.000015   -0.000000
  -10   -7    0    6    7    0.000004    0.000000
  -10   -7    0    7    7    0.000007    0.000000
  -10   -7    0    8    7   -0.000001    0.000000
  -10   -7    0    9    7    0.000000    0.000000
  -10   -7    0    1    8    0.000003   -0.000000
  -10   -7    0    2    8   -0.000465    0.000000
  -10   -7    0    3    8   -0.000022    0.000000
  -10   -7    0    4    8    0.000022   -0.000000
  -10   -7    0    5    8   -0.000004   -0.000000
  -10   -7    0    6    8   -0.000004   -0.000000
  -10   -7    0    7    8   -0.000001    0.000000
  -10   -7    0    8    8    0.000007   -0.000000
  -10   -7    0    9    8   -0.000003   -0.000000
  -10   -7    0    1    9    0.000003    0.000000
  -10   -7    0    2    9   -0.000353    0.000000
  -10   -7    0    3    9   -0.000057    0.000000
  -10   -7    0    4    9    0.000012   -0.000000
  -10   -7    0    5    9   -0.000002    0.000000
  -10   -7    0    6    9    0.000001    0.000000
  -10   -7    0    7    9    0.000000    0.000000
  -10   -7    0    8    9   -0.000003   -0.000000
  -10   -7    0    9    9   -0.000010   -0.000000
  -10   -6    0    1    1    0.000016    0.000000
  -10   -6    0    2    1   -0.000045    0.000000
  -10   -6    0    3    1   -0.000003   -0.000000
  -10   -6    0    4    1    0.000032   -0.000000
  -10   -6    0    5    1   -0.000007   -0.000000
  -10   -6    0    6    1    0.000015    0.000000
  -10   -6    0    7    1    0.000009    0.000000
  -10   -6    0    8    1   -0.000005   -0.000000
  -10   -6    0    9    1    0.000016    0.000000
  -10   -6    0    1    2    0.000045   -0.000000
  -10   -6    0    2    2    0.000823    0.000000
  -10   -6    0    3    2    0.001651    0.000000
  -10   -6    0    4    2   -0.001695   -0.000000
  -10   -6    0    5    2    0.000061   -0.000000
  -10   -6    0    6    2   -0.000078   -0.000000
  -10   -6    0    7    2   -0.000060   -0.000000
  -10   -6    0    8    2    0.000033   -0.000000
  -10   -6    0    9    2    0.000058   -0.000000
  -10   -6    0    1    3    0.000003   -0.000000
  -10   -6    0    2    3    0.001651   -0.000000
  -10   -6    0    3    3    0.000309    0.000000
  -10   -6    0    4    3   -0.000262   -0.000000
  -10   -6    0    5    3    0.000023   -0.000000
  -10   -6    0    6    3    0.000024   -0.000000
  -10   -6    0    7    3   -0.000047    0.000000
  -10   -6    0    8    3    0.000010    0.000000
  -10   -6    0    9    3   -0.000006   -0.000000
  -10   -6    0    1    4   -0.000032   -0.000000
  -10   -6    0    2    4   -0.001695    0.000000
  -10   -6    0    3    4   -0.000262    0.000000
  -10   -6    0    4    4   -0.000352    0.000000
  -10   -6    0    5    4   -0.000018    0.000000
  -10   -6    0    6    4    0.000007   -0.000000
  -10   -6    0    7    4    0.000031   -0.000000
  -10   -6    0    8    4   -0.000002   -0.000000
  -10   -6    0    9    4   -0.000024   -0.000000
  -10   -6    0    1    5   -0.000007   -0.000000
  -10   -6    0    2    5   -0.000061    0.000000
  -10   -6    0    3    5   -0.000023    0.000000
  -10   -6    0    4    5    0.000018   -0.000000
  -10   -6    0    5    5   -0.000008   -0.000000
  -10   -6    0    6    5    0.000005    0.000000
  -10   -6    0    7    5    0.000008    0.000000
  -10   -6    0    8    5   -0.000006    0.000000
  -10   -6    0    9    5    0.000004   -0.000000
  -10   -6    0    1    6    0.000015   -0.000000
  -10   -6    0    2    6    0.000078    0.000000
  -10   -6    0    3    6   -0.000024    0.000000
  -10   -6    0    4    6   -0.000007    0.000000
  -10   -6    0    5    6    0.000005   -0.000000
  -10   -6    0    6    6    0.000001    0.000000
  -10   -6    0    7    6    0.000005   -0.000000
  -10   -6    0    8    6   -0.000004   -0.000000
  -10   -6    0    9    6   -0.000004   -0.000000
  -10   -6    0    1    7    0.000009    0.000000
  -10   -6    0    2    7    0.000060    0.000000
  -10   -6    0    3    7    0.000047    0.000000
  -10   -6    0    4    7   -0.000031   -0.000000
  -10   -6    0    5    7    0.000008   -0.000000
  -10   -6    0    6    7    0.000005    0.000000
  -10   -6    0    7    7    0.000021    0.000000
  -10   -6    0    8    7   -0.000019   -0.000000
  -10   -6    0    9    7   -0.000003   -0.000000
  -10   -6    0    1    8   -0.000005    0.000000
  -10   -6    0    2    8   -0.000033    0.000000
  -10   -6    0    3    8   -0.000010    0.000000
  -10   -6    0    4    8    0.000002   -0.000000
  -10   -6    0    5    8   -0.000006   -0.000000
  -10   -6    0    6    8   -0.000004   -0.000000
  -10   -6    0    7    8   -0.000019    0.000000
  -10   -6    0    8    8   -0.000014   -0.000000
  -10   -6    0    9    8   -0.000011    0.000000
  -10   -6    0    1    9    0.000016   -0.000000
  -10   -6    0    2    9   -0.000058    0.000000
  -10   -6    0    3    9    0.000006    0.000000
  -10   -6    0    4    9    0.000024    0.000000
  -10   -6    0    5    9    0.000004   -0.000000
  -10   -6    0    6    9   -0.000004    0.000000
  -10   -6    0    7    9   -0.000003    0.000000
  -10   -6    0    8    9   -0.000011   -0.000000
  -10   -6    0    9    9    0.000004   -0.000000
  -10   -5    0    1    1    0.000071    0.000000
  -10   -5    0    2    1    0.000413    0.000000
  -10   -5    0    3    1   -0.000208   -0.000000
  -10   -5    0    4    1   -0.000108    0.000000
  -10   -5    0    5    1    0.000013    0.000000
  -10   -5    0    6    1    0.000008    0.000000
  -10   -5    0    7    1    0.000004   -0.000000
  -10   -5    0    8    1    0.000008   -0.000000
  -10   -5    0    9    1    0.000014    0.000000
  -10   -5    0    1    2   -0.000413    0.000000
  -10   -5    0    2    2    0.000083    0.000000
  -10   -5    0    3    2    0.001699   -0.000000
  -10   -5    0    4    2    0.000981   -0.000000
  -10   -5    0    5    2   -0.000043   -0.000000
  -10   -5    0    6    2    0.000264    0.000000
  -10   -5    0    7    2    0.000152    0.000000
  -10   -5    0    8    2   -0.000254   -0.000000
  -10   -5    0    9    2   -0.000439   -0.000000
  -10   -5    0    1    3    0.000208    0.000000
  -10   -5    0    2    3    0.001699    0.000000
  -10   -5    0    3    3   -0.000134   -0.000000
  -10   -5    0    4    3   -0.000168    0.000000
  -10   -5    0    5    3    0.000059    0.000000
  -10   -5    0    6    3    0.000124    0.000000
  -10   -5    0    7    3    0.000099    0.000000
  -10   -5    0    8    3   -0.000026    0.000000
  -10   -5    0    9    3   -0.000049    0.000000
  -10   -5    0    1    4    0.000108    0.000000
  -10   -5    0    2    4    0.000981    0.000000
  -10   -5    0    3    4   -0.000168   -0.000000
  -10   -5    0    4    4    0.000055   -0.000000
  -10   -5    0    5    4    0.000031   -0.000000
  -10   -5    0    6    4    0.000099    0.000000
  -10   -5    0    7    4    0.000010    0.000000
  -10   -5    0    8    4   -0.000019   -0.000000
  -10   -5    0    9    4   -0.000025    0.000000
  -10   -5    0    1    5    0.000013   -0.000000
  -10   -5    0    2    5    0.000043    0.000000
  -10   -5    0    3    5   -0.000059    0.000000
  -10   -5    0    4    5   -0.000031    0.000000
  -10   -5    0    5    5    0.000003   -0.000000
  -10   -5    0    6    5   -0.000004   -0.000000
  -10   -5    0    7    5   -0.000002    0.000000
  -10   -5    0    8    5    0.000004    0.000000
  -10   -5    0    9    5    0.000007    0.000000
  -10   -5    0    1    6    0.000008    0.000000
  -10   -5    0    2    6   -0.000264   -0.000000
  -10   -5    0    3    6   -0.000124    0.000000
  -10   -5    0    4    6   -0.000099   -0.000000
  -10   -5    0    5    6   -0.000004   -0.000000
  -10   -5    0    6    6    0.000005   -0.000000
  -10   -5    0    7    6    0.000008    0.000000
  -10   -5    0    8    6   -0.000008   -0.000000
  -10   -5    0    9    6    0.000004    0.000000
  -10   -5    0    1    7    0.000004   -0.000000
  -10   -5    0    2    7   -0.000152   -0.000000
  -10   -5    0    3    7   -0.000099   -0.000000
  -10   -5    0    4    7   -0.000010    0.000000
  -10   -5    0    5    7   -0.000002    0.000000
  -10   -5    0    6    7    0.000008    0.000000
  -10   -5    0    7    7   -0.000004    0.000000
  -10   -5    0    8    7    0.000013   -0.000000
  -10   -5    0    9    7   -0.000008    0.000000
  -10   -5    0    1    8    0.000008   -0.000000
  -10   -5    0    2    8    0.000254   -0.000000
  -10   -5    0    3    8    0.000026    0.000000
  -10   -5    0    4    8    0.000019    0.000000
  -10   -5    0    5    8    0.000004   -0.000000
  -10   -5    0    6    8   -0.000008   -0.000000
  -10   -5    0    7    8    0.000013    0.000000
  -10   -5    0    8    8   -0.000006    0.000000
  -10   -5    0    9    8    0.000001   -0.000000
  -10   -5    0    1    9    0.000014    0.000000
  -10   -5    0    2    9    0.000439   -0.000000
  -10   -5    0    3    9    0.000049   -0.000000
  -10   -5    0    4    9    0.000025   -0.000000
  -10   -5    0    5    9    0.000007   -0.000000
  -10   -5    0    6    9    0.000003   -0.000000
  -10   -5    0    7    9   -0.000008   -0.000000
  -10   -5    0    8    9    0.000001   -0.000000
  -10   -5    0    9    9   -0.000005    0.000000
  -10   -4    0    1    1    0.000020    0.000000
  -10   -4    0    2    1   -0.000046    0.000000
  -10   -4    0    3    1    0.000021   -0.000000
  -10   -4    0    4    1   -0.000017   -0.000000
  -10   -4    0    5    1   -0.000014    0.000000
  -10   -4    0    6    1    0.000018   -0.000000
  -10   -4    0    7    1    0.000011    0.000000
  -10   -4    0    8    1    0.000014    0.000000
  -10   -4    0    9    1    0.000002   -0.000000
  -10   -4    0    1    2    0.000046    0.000000
  -10   -4    0    2    2    0.000835    0.000000
  -10   -4    0    3    2   -0.000642   -0.000000
  -10   -4    0    4    2    0.002278    0.000000
  -10   -4    0    5    2    0.000061    0.000000
  -10   -4    0    6    2   -0.000091   -0.000000
  -10   -4    0    7    2   -0.000038   -0.000000
  -10   -4    0    8    2    0.000034   -0.000000
  -10   -4    0    9    2    0.000058   -0.000000
  -10   -4    0    1    3   -0.000021   -0.000000
  -10   -4    0    2    3   -0.000642    0.000000
  -10   -4    0    3    3   -0.000418    0.000000
  -10   -4    0    4    3    0.000160    0.000000
  -10   -4    0    5    3   -0.000004   -0.000000
  -10   -4    0    6    3    0.000013   -0.000000
  -10   -4    0    7    3    0.000015   -0.000000
  -10   -4    0    8    3   -0.000024   -0.000000
  -10   -4    0    9    3   -0.000010   -0.000000
  -10   -4    0    1    4    0.000017   -0.000000
  -10   -4    0    2    4    0.002278   -0.000000
  -10   -4    0    3    4    0.000160   -0.000000
  -10   -4    0    4    4    0.000358    0.000000
  -10   -4    0    5    4    0.000029    0.000000
  -10   -4    0    6    4   -0.000041    0.000000
  -10   -4    0    7    4    0.000043    0.000000
  -10   -4    0    8    4    0.000003    0.000000
  -10   -4    0    9    4    0.000015    0.000000
  -10   -4    0    1    5   -0.000014   -0.000000
  -10   -4    0    2    5   -0.000061    0.000000
  -10   -4    0    3    5    0.000004    0.000000
  -10   -4    0    4    5   -0.000029   -0.000000
  -10   -4    0    5    5   -0.000006    0.000000
  -10   -4    0    6    5    0.000009   -0.000000
  -10   -4    0    7    5    0.000000   -0.000000
  -10   -4    0    8    5    0.000006   -0.000000
  -10   -4    0    9    5   -0.000003    0.000000
  -10   -4    0    1    6    0.000018   -0.000000
  -10   -4    0    2    6    0.000091   -0.000000
  -10   -4    0    3    6   -0.000013    0.000000
  -10   -4    0    4    6    0.000041   -0.000000
  -10   -4    0    5    6    0.000009   -0.000000
  -10   -4    0    6    6    0.000020    0.000000
  -10   -4    0    7    6   -0.000006    0.000000
  -10   -4    0    8    6    0.000005   -0.000000
  -10   -4    0    9    6   -0.000019    0.000000
  -10   -4    0    1    7    0.000011    0.000000
  -10   -4    0    2    7    0.000038   -0.000000
  -10   -4    0    3    7   -0.000015   -0.000000
  -10   -4    0    4    7   -0.000043   -0.000000
  -10   -4    0    5    7    0.000000    0.000000
  -10   -4    0    6    7   -0.000006    0.000000
  -10   -4    0    7    7    0.000001   -0.000000
  -10   -4    0    8    7   -0.000005    0.000000
  -10   -4    0    9    7    0.000004    0.000000
  -10   -4    0    1    8    0.000014    0.000000
  -10   -4    0    2    8   -0.000034   -0.000000
  -10   -4    0    3    8    0.000024   -0.000000
  -10   -4    0    4    8   -0.000003   -0.000000
  -10   -4    0    5    8    0.000006    0.000000
  -10   -4    0    6    8    0.000005    0.000000
  -10   -4    0    7    8   -0.000005   -0.000000
  -10   -4    0    8    8    0.000009    0.000000
  -10   -4    0    9    8    0.000002   -0.000000
  -10   -4    0    1    9    0.000002   -0.000000
  -10   -4    0    2    9   -0.000058   -0.000000
  -10   -4    0    3    9    0.000010    0.000000
  -10   -4    0    4    9   -0.000015    0.000000
  -10   -4    0    5    9   -0.000003   -0.000000
  -10   -4    0    6    9   -0.000019   -0.000000
  -10   -4    0    7    9    0.000004   -0.000000
  -10   -4    0    8    9    0.000002    0.000000
  -10   -4    0    9    9   -0.000019   -0.000000
  -10   -3    0    1    1   -0.000019    0.000000
  -10   -3    0    2    1    0.000173   -0.000000
  -10   -3    0    3    1   -0.000014   -0.000000
  -10   -3    0    4    1    0.000070   -0.000000
  -10   -3    0    5    1   -0.000001    0.000000
  -10   -3    0    6    1    0.000041    0.000000
  -10   -3    0    7    1   -0.000012    0.000000
  -10   -3    0    8    1    0.000002    0.000000
  -10   -3    0    9    1    0.000004   -0.000000
  -10   -3    0    1    2   -0.000173   -0.000000
  -10   -3    0    2    2   -0.000190   -0.000000
  -10   -3    0    3    2    0.000818    0.000000
  -10   -3    0    4    2   -0.000379   -0.000000
  -10   -3    0    5    2   -0.000010    0.000000
  -10   -3    0    6    2   -0.000159   -0.000000
  -10   -3    0    7    2   -0.000028    0.000000
  -10   -3    0    8    2    0.000073    0.000000
  -10   -3    0    9    2    0.000580   -0.000000
  -10   -3    0    1    3    0.000014   -0.000000
  -10   -3    0    2    3    0.000818   -0.000000
  -10   -3    0    3    3   -0.000090   -0.000000
  -10   -3    0    4    3    0.000056   -0.000000
  -10   -3    0    5    3    0.000031    0.000000
  -10   -3    0    6    3   -0.000040    0.000000
  -10   -3    0    7    3   -0.000072   -0.000000
  -10   -3    0    8    3    0.000018   -0.000000
  -10   -3    0    9    3    0.000002    0.000000
  -10   -3    0    1    4   -0.000070   -0.000000
  -10   -3    0    2    4   -0.000379    0.000000
  -10   -3    0    3    4    0.000056   -0.000000
  -10   -3    0    4    4    0.000043    0.000000
  -10   -3    0    5    4   -0.000054    0.000000
  -10   -3    0    6    4   -0.000107   -0.000000
  -10   -3    0    7    4   -0.000029   -0.000000
  -10   -3    0    8    4    0.000034    0.000000
  -10   -3    0    9    4    0.000055   -0.000000
  -10   -3    0    1    5   -0.000001    0.000000
  -10   -3    0    2    5    0.000010   -0.000000
  -10   -3    0    3    5   -0.000031   -0.000000
  -10   -3    0    4    5    0.000054   -0.000000
  -10   -3    0    5    5    0.000004   -0.000000
  -10   -3    0    6    5    0.000015    0.000000
  -10   -3    0    7    5   -0.000004    0.000000
  -10   -3    0    8    5    0.000001    0.000000
  -10   -3    0    9    5   -0.000004    0.000000
  -10   -3    0    1    6    0.000041    0.000000
  -10   -3    0    2    6    0.000159    0.000000
  -10   -3    0    3    6    0.000040   -0.000000
  -10   -3    0    4    6    0.000107    0.000000
  -10   -3    0    5    6    0.000015    0.000000
  -10   -3    0    6    6    0.000008    0.000000
  -10   -3    0    7    6   -0.000001    0.000000
  -10   -3    0    8    6    0.000002    0.000000
  -10   -3    0    9    6   -0.000002   -0.000000
  -10   -3    0    1    7   -0.000012   -0.000000
  -10   -3    0    2    7    0.000028   -0.000000
  -10   -3    0    3    7    0.000072   -0.000000
  -10   -3    0    4    7    0.000029   -0.000000
  -10   -3    0    5    7   -0.000004    0.000000
  -10   -3    0    6    7   -0.000001    0.000000
  -10   -3    0    7    7   -0.000001   -0.000000
  -10   -3    0    8    7    0.000002    0.000000
  -10   -3    0    9    7   -0.000003   -0.000000
  -10   -3    0    1    8    0.000002   -0.000000
  -10   -3    0    2    8   -0.000073    0.000000
  -10   -3    0    3    8   -0.000018    0.000000
  -10   -3    0    4    8   -0.000034    0.000000
  -10   -3    0    5    8    0.000001   -0.000000
  -10   -3    0    6    8    0.000002   -0.000000
  -10   -3    0    7    8    0.000002   -0.000000
  -10   -3    0    8    8   -0.000004    0.000000
  -10   -3    0    9    8   -0.000009   -0.000000
  -10   -3    0    1    9    0.000004   -0.000000
  -10   -3    0    2    9   -0.000580    0.000000
  -10   -3    0    3    9   -0.000002   -0.000000
  -10   -3    0    4    9   -0.000055    0.000000
  -10   -3    0    5    9   -0.000004    0.000000
  -10   -3    0    6    9   -0.000002   -0.000000
  -10   -3    0    7    9   -0.000003   -0.000000
  -10   -3    0    8    9   -0.000009   -0.000000
  -10   -3    0    9    9   -0.000000   -0.000000
  -10   -2    0    1    1   -0.000022    0.000000
  -10   -2    0    2    1    0.000400   -0.000000
  -10   -2    0    3    1   -0.000000   -0.000000
  -10   -2    0    4    1    0.000081   -0.000000
  -10   -2    0    5    1    0.000006    0.000000
  -10   -2    0    6    1   -0.000000    0.000000
  -10   -2    0    7    1   -0.000000   -0.000000
  -10   -2    0    8    1    0.000011   -0.000000
  -10   -2    0    9    1   -0.000000    0.000000
  -10   -2    0    1    2   -0.000399   -0.000000
  -10   -2    0    2    2   -0.000501   -0.000000
  -10   -2    0    3    2    0.000000    0.000000
  -10   -2    0    4    2   -0.001345    0.000000
  -10   -2    0    5    2   -0.000114   -0.000000
  -10   -2    0    6    2    0.000000    0.000000
  -10   -2    0    7    2   -0.000048    0.000000
  -10   -2    0    8    2    0.000079    0.000000
  -10   -2    0    9    2    0.000000   -0.000000
  -10   -2    0    1    3    0.000000   -0.000000
  -10   -2    0    2    3   -0.000000   -0.000000
  -10   -2    0    3    3    0.000338    0.000000
  -10   -2    0    4    3   -0.000000   -0.000000
  -10   -2    0    5    3   -0.000000    0.000000
  -10   -2    0    6    3   -0.000056   -0.000000
  -10   -2    0    7    3    0.000000   -0.000000
  -10   -2    0    8    3    0.000000   -0.000000
  -10   -2    0    9    3    0.000011    0.000000
  -10   -2    0    1    4   -0.000081   -0.000000
  -10   -2    0    2    4   -0.001345   -0.000000
  -10   -2    0    3    4   -0.000000    0.000000
  -10   -2    0    4    4   -0.000647    0.000000
  -10   -2    0    5    4   -0.000026    0.000000
  -10   -2    0    6    4    0.000000   -0.000000
  -10   -2    0    7    4   -0.000006   -0.000000
  -10   -2    0    8    4   -0.000036   -0.000000
  -10   -2    0    9    4   -0.000000    0.000000
  -10   -2    0    1    5    0.000006    0.000000
  -10   -2    0    2    5    0.000114    0.000000
  -10   -2    0    3    5   -0.000000   -0.000000
  -10   -2    0    4    5    0.000026    0.000000
  -10   -2    0    5    5    0.000007    0.000000
  -10   -2    0    6    5   -0.000000   -0.000000
  -10   -2    0    7    5    0.000000   -0.000000
  -10   -2    0    8    5    0.000005   -0.000000
  -10   -2    0    9    5   -0.000000   -0.000000
  -10   -2    0    1    6   -0.000000   -0.000000
  -10   -2    0    2    6   -0.000000   -0.000000
  -10   -2    0    3    6    0.000056    0.000000
  -10   -2    0    4    6    0.000000    0.000000
  -10   -2    0    5    6    0.000000    0.000000
  -10   -2    0    6    6   -0.000001   -0.000000
  -10   -2    0    7    6   -0.000000   -0.000000
  -10   -2    0    8    6   -0.000000    0.000000
  -10   -2    0    9    6    0.000011    0.000000
  -10   -2    0    1    7   -0.000000   -0.000000
  -10   -2    0    2    7    0.000048   -0.000000
  -10   -2    0    3    7   -0.000000    0.000000
  -10   -2    0    4    7    0.000006    0.000000
  -10   -2    0    5    7    0.000000   -0.000000
  -10   -2    0    6    7   -0.000000   -0.000000
  -10   -2    0    7    7   -0.000006    0.000000
  -10   -2    0    8    7    0.000006   -0.000000
  -10   -2    0    9    7   -0.000000   -0.000000
  -10   -2    0    1    8    0.000011    0.000000
  -10   -2    0    2    8   -0.000079    0.000000
  -10   -2    0    3    8   -0.000000    0.000000
  -10   -2    0    4    8    0.000036   -0.000000
  -10   -2    0    5    8    0.000005   -0.000000
  -10   -2    0    6    8   -0.000000   -0.000000
  -10   -2    0    7    8    0.000006    0.000000
  -10   -2    0    8    8   -0.000016    0.000000
  -10   -2    0    9    8   -0.000000    0.000000
  -10   -2    0    1    9   -0.000000    0.000000
  -10   -2    0    2    9   -0.000000   -0.000000
  -10   -2    0    3    9   -0.000011    0.000000
  -10   -2    0    4    9    0.000000    0.000000
  -10   -2    0    5    9    0.000000   -0.000000
  -10   -2    0    6    9    0.000011   -0.000000
  -10   -2    0    7    9   -0.000000    0.000000
  -10   -2    0    8    9   -0.000000    0.000000
  -10   -2    0    9    9    0.000003    0.000000
   -9   -9    0    1    1   -0.000023    0.000000
   -9   -9    0    2    1   -0.000000   -0.000000
   -9   -9    0    3    1    0.000000    0.000000
   -9   -9    0    4    1    0.000000   -0.000000
   -9   -9    0    5    1   -0.000010   -0.000000
   -9   -9    0    6    1    0.000012   -0.000000
   -9   -9    0    7    1   -0.000004    0.000000
   -9   -9    0    8    1    0.000002    0.000000
   -9   -9    0    9    1   -0.000006    0.000000
   -9   -9    0    1    2   -0.000000    0.000000
   -9   -9    0    2    2   -0.000690    0.000000
   -9   -9    0    3    2   -0.000940   -0.000000
   -9   -9    0    4    2    0.000542   -0.000000
   -9   -9    0    5    2    0.000000   -0.000000
   -9   -9    0    6    2    0.000000   -0.000000
   -9   -9    0    7    2   -0.000000   -0.000000
   -9   -9    0    8    2   -0.000000   -0.000000
   -9   -9    0    9    2    0.000000   -0.000000
   -9   -9    0    1    3    0.000000   -0.000000
   -9   -9    0    2    3   -0.000940    0.000000
   -9   -9    0    3    3    0.000014    0.000000
   -9   -9    0    4    3   -0.000356    0.000000
   -9   -9    0    5    3    0.000000   -0.000000
   -9   -9    0    6    3    0.000000   -0.000000
   -9   -9    0    7    3   -0.000000   -0.000000
   -9   -9    0    8    3   -0.000000   -0.000000
   -9   -9    0    9    3    0.000000   -0.000000
   -9   -9    0    1    4    0.000000    0.000000
   -9   -9    0    2    4    0.000542    0.000000
   -9   -9    0    3    4   -0.000356   -0.000000
   -9   -9    0    4    4   -0.000405    0.000000
   -9   -9    0    5    4    0.000000   -0.000000
   -9   -9    0    6    4   -0.000000    0.000000
   -9   -9    0    7    4    0.000000   -0.000000
   -9   -9    0    8    4    0.000000   -0.000000
   -9   -9    0    9    4   -0.000000    0.000000
   -9   -9    0    1    5   -0.000010    0.000000
   -9   -9    0    2    5    0.000000    0.000000
   -9   -9    0    3    5    0.000000    0.000000
   -9   -9    0    4    5    0.000000    0.000000
   -9   -9    0    5    5   -0.000002    0.000000
   -9   -9    0    6    5    0.000005    0.000000
   -9   -9    0    7    5   -0.000004   -0.000000
   -9   -9    0    8    5    0.000001   -0.000000
   -9   -9    0    9    5   -0.000002   -0.000000
   -9   -9    0    1    6    0.000012    0.000000
   -9   -9    0    2    6    0.000000    0.000000
   -9   -9    0    3    6    0.000000    0.000000
   -9   -9    0    4    6   -0.000000   -0.000000
   -9   -9    0    5    6    0.000005   -0.000000
   -9   -9    0    6    6    0.000011    0.000000
   -9   -9    0    7    6    0.000004    0.000000
   -9   -9    0    8    6    0.000005    0.000000
   -9   -9    0    9    6   -0.000004    0.000000
   -9   -9    0    1    7   -0.000004   -0.000000
   -9   -9    0    2    7   -0.000000    0.000000
   -9   -9    0    3    7   -0.000000    0.000000
   -9   -9    0    4    7    0.000000    0.000000
   -9   -9    0    5    7   -0.000004    0.000000
   -9   -9    0    6    7    0.000004   -0.000000
   -9   -9    0    7    7    0.000016    0.000000
   -9   -9    0    8    7    0.000002    0.000000
   -9   -9    0    9    7    0.000005    0.000000
   -9   -9    0    1    8    0.000002   -0.000000
   -9   -9    0    2    8   -0.000000    0.000000
   -9   -9    0    3    8   -0.000000    0.000000
   -9   -9    0    4    8    0.000000    0.000000
   -9   -9    0    5    8    0.000001    0.000000
   -9   -9    0    6    8    0.000005   -0.000000
   -9   -9    0    7    8    0.000002   -0.000000
   -9   -9    0    8    8    0.000005    0.000000
   -9   -9    0    9    8   -0.000002    0.000000
   -9   -9    0    1    9   -0.000006   -0.000000
   -9   -9    0    2    9    0.000000    0.000000
   -9   -9    0    3    9    0.000000    0.000000
   -9   -9    0    4    9   -0.000000   -0.000000
   -9   -9    0    5    9   -0.000002    0.000000
   -9   -9    0    6    9   -0.000004   -0.000000
   -9   -9    0    7    9    0.000005   -0.000000
   -9   -9    0    8    9   -0.000002   -0.000000
   -9   -9    0    9    9    0.000007    0.000000
   -9   -8    0    1    1   -0.000048   -0.000000
   -9   -8    0    2    1   -0.000043   -0.000000
   -9   -8    0    3    1    0.000058   -0.000000
   -9   -8    0    4    1    0.000058    0.000000
   -9   -8    0    5    1   -0.000012    0.000000
   -9   -8    0    6    1   -0.000011    0.000000
   -9   -8    0    7    1    0.000024   -0.000000
   -9   -8    0    8    1   -0.000016   -0.000000
   -9   -8    0    9    1    0.000010    0.000000
   -9   -8    0    1    2    0.000043   -0.000000
   -9   -8    0    2    2    0.000254    0.000000
   -9   -8    0    3    2    0.000157    0.000000
   -9   -8    0    4    2   -0.000437    0.000000
   -9   -8    0    5    2    0.000025    0.000000
   -9   -8    0    6    2   -0.000032    0.000000
   -9   -8    0    7    2   -0.000088    0.000000
   -9   -8    0    8    2    0.000232    0.000000
   -9   -8    0    9    2    0.000096    0.000000
   -9   -8    0    1    3   -0.000058   -0.000000
   -9   -8    0    2    3    0.000157   -0.000000
   -9   -8    0    3    3    0.000340    0.000000
   -9   -8    0    4    3    0.000062   -0.000000
   -9   -8    0    5    3   -0.000020    0.000000
   -9   -8    0    6    3   -0.000004    0.000000
   -9   -8    0    7    3   -0.000040    0.000000
   -9   -8    0    8    3    0.000032    0.000000
   -9   -8    0    9    3    0.000038    0.000000
   -9   -8    0    1    4   -0.000058    0.000000
   -9   -8    0    2    4   -0.000437   -0.000000
   -9   -8    0    3    4    0.000062    0.000000
   -9   -8    0    4    4   -0.000435   -0.000000
   -9   -8    0    5    4   -0.000028    0.000000
   -9   -8    0    6    4    0.000001   -0.000000
   -9   -8    0    7    4   -0.000017   -0.000000
   -9   -8    0    8    4   -0.000029   -0.000000
   -9   -8    0    9    4    0.000004    0.000000
   -9   -8    0    1    5   -0.000012   -0.000000
   -9   -8    0    2    5   -0.000025    0.000000
   -9   -8    0    3    5    0.000020    0.000000
   -9   -8    0    4    5    0.000028   -0.000000
   -9   -8    0    5    5   -0.000004    0.000000
   -9   -8    0    6    5    0.000003   -0.000000
   -9   -8    0    7    5    0.000005   -0.000000
   -9   -8    0    8    5   -0.000003   -0.000000
   -9   -8    0    9    5    0.000001   -0.000000
   -9   -8    0    1    6   -0.000011   -0.000000
   -9   -8    0    2    6    0.000032   -0.000000
   -9   -8    0    3    6    0.000004    0.000000
   -9   -8    0    4    6   -0.000001   -0.000000
   -9   -8    0    5    6    0.000003   -0.000000
   -9   -8    0    6    6    0.000001    0.000000
   -9   -8    0    7    6    0.000005    0.000000
   -9   -8    0    8    6   -0.000006   -0.000000
   -9   -8    0    9    6   -0.000004   -0.000000
   -9   -8    0    1    7    0.000024   -0.000000
   -9   -8    0    2    7    0.000088   -0.000000
   -9   -8    0    3    7    0.000040    0.000000
   -9   -8    0    4    7    0.000017   -0.000000
   -9   -8    0    5    7    0.000005    0.000000
   -9   -8    0    6    7    0.000005    0.000000
   -9   -8    0    7    7    0.000003    0.000000
   -9   -8    0    8    7   -0.000004    0.000000
   -9   -8    0    9    7   -0.000003    0.000000
   -9   -8    0    1    8   -0.000016   -0.000000
   -9   -8    0    2    8   -0.000232   -0.000000
   -9   -8    0    3    8   -0.000032    0.000000
   -9   -8    0    4    8    0.000029    0.000000
   -9   -8    0    5    8   -0.000003    0.000000
   -9   -8    0    6    8   -0.000006   -0.000000
   -9   -8    0    7    8   -0.000004   -0.000000
   -9   -8    0    8    8    0.000001   -0.000000
   -9   -8    0    9    8    0.000004   -0.000000
   -9   -8    0    1    9    0.000010    0.000000
   -9   -8    0    2    9   -0.000096    0.000000
   -9   -8    0    3    9   -0.000038    0.000000
   -9   -8    0    4    9   -0.000004   -0.000000
   -9   -8    0    5    9    0.000001    0.000000
   -9   -8    0    6    9   -0.000004    0.000000
   -9   -8    0    7    9   -0.000003    0.000000
   -9   -8    0    8    9    0.000004   -0.000000
   -9   -8    0    9    9    0.000009   -0.000000
   -9   -7    0    1    1   -0.000046   -0.000000
   -9   -7    0    2    1   -0.000380    0.000000
   -9   -7    0    3    1   -0.000095    0.000000
   -9   -7    0    4    1    0.000080    0.000000
   -9   -7    0    5    1   -0.000002   -0.000000
   -9   -7    0    6    1    0.000015    0.000000
   -9   -7    0    7    1   -0.000000    0.000000
   -9   -7    0    8    1    0.000006   -0.000000
   -9   -7    0    9    1   -0.000002    0.000000
   -9   -7    0    1    2    0.000380    0.000000
   -9   -7    0    2    2    0.000278    0.000000
   -9   -7    0    3    2    0.001825    0.000000
   -9   -7    0    4    2   -0.000217   -0.000000
   -9   -7    0    5    2    0.000066   -0.000000
   -9   -7    0    6    2    0.000077   -0.000000
   -9   -7    0    7    2    0.000014   -0.000000
   -9   -7    0    8    2   -0.000082   -0.000000
   -9   -7    0    9    2   -0.000186   -0.000000
   -9   -7    0    1    3    0.000095    0.000000
   -9   -7    0    2    3    0.001825   -0.000000
   -9   -7    0    3    3    0.000727   -0.000000
   -9   -7    0    4    3   -0.000516   -0.000000
   -9   -7    0    5    3    0.000048   -0.000000
   -9   -7    0    6    3    0.000055    0.000000
   -9   -7    0    7    3    0.000101   -0.000000
   -9   -7    0    8    3   -0.000034   -0.000000
   -9   -7    0    9    3   -0.000003   -0.000000
   -9   -7    0    1    4   -0.000080    0.000000
   -9   -7    0    2    4   -0.000217    0.000000
   -9   -7    0    3    4   -0.000516    0.000000
   -9   -7    0    4    4    0.000034   -0.000000
   -9   -7    0    5    4   -0.000020    0.000000
   -9   -7    0    6    4    0.000023   -0.000000
   -9   -7    0    7    4    0.000047    0.000000
   -9   -7    0    8    4    0.000028   -0.000000
   -9   -7    0    9    4    0.000079    0.000000
   -9   -7    0    1    5   -0.000002   -0.000000
   -9   -7    0    2    5   -0.000066    0.000000
   -9   -7    0    3    5   -0.000048    0.000000
   -9   -7    0    4    5    0.000020    0.000000
   -9   -7    0    5    5    0.000004    0.000000
   -9   -7    0    6    5    0.000006   -0.000000
   -9   -7    0    7    5    0.000002    0.000000
   -9   -7    0    8    5   -0.000002    0.000000
   -9   -7    0    9    5   -0.000006   -0.000000
   -9   -7    0    1    6    0.000015   -0.000000
   -9   -7    0    2    6   -0.000077   -0.000000
   -9   -7    0    3    6   -0.000055   -0.000000
   -9   -7    0    4    6   -0.000023    0.000000
   -9   -7    0    5    6    0.000006    0.000000
   -9   -7    0    6    6    0.000006   -0.000000
   -9   -7    0    7    6    0.000008   -0.000000
   -9   -7    0    8    6   -0.000009   -0.000000
   -9   -7    0    9    6   -0.000003   -0.000000
   -9   -7    0    1    7   -0.000000    0.000000
   -9   -7    0    2    7   -0.000014   -0.000000
   -9   -7    0    3    7   -0.000101   -0.000000
   -9   -7    0    4    7   -0.000047   -0.000000
   -9   -7    0    5    7    0.000002    0.000000
   -9   -7    0    6    7    0.000008    0.000000
   -9   -7    0    7    7    0.000007    0.000000
   -9   -7    0    8    7   -0.000008   -0.000000
   -9   -7    0    9    7   -0.000014   -0.000000
   -9   -7    0    1    8    0.000006    0.000000
   -9   -7    0    2    8    0.000082   -0.000000
   -9   -7    0    3    8    0.000034    0.000000
   -9   -7    0    4    8   -0.000028   -0.000000
   -9   -7    0    5    8   -0.000002    0.000000
   -9   -7    0    6    8   -0.000009    0.000000
   -9   -7    0    7    8   -0.000008    0.000000
   -9   -7    0    8    8    0.000000   -0.000000
   -9   -7    0    9    8    0.000001    0.000000
   -9   -7    0    1    9   -0.000002    0.000000
   -9   -7    0    2    9    0.000186   -0.000000
   -9   -7    0    3    9    0.000003   -0.000000
   -9   -7    0    4    9   -0.000079    0.000000
   -9   -7    0    5    9   -0.000006   -0.000000
   -9   -7    0    6    9   -0.000003    0.000000
   -9   -7    0    7    9   -0.000014    0.000000
   -9   -7    0    8    9    0.000001   -0.000000
   -9   -7    0    9    9    0.000002    0.000000
   -9   -6    0    1    1   -0.000015    0.000000
   -9   -6    0    2    1   -0.000123    0.000000
   -9   -6    0    3    1   -0.000020    0.000000
   -9   -6    0    4    1    0.000119    0.000000
   -9   -6    0    5    1   -0.000010    0.000000
   -9   -6    0    6    1    0.000014    0.000000
   -9   -6    0    7    1   -0.000025   -0.000000
   -9   -6    0    8    1    0.000002   -0.000000
   -9   -6    0    9    1   -0.000027   -0.000000
   -9   -6    0    1    2    0.000123    0.000000
   -9   -6    0    2    2    0.000653    0.000000
   -9   -6    0    3    2   -0.000233   -0.000000
   -9   -6    0    4    2   -0.000029   -0.000000
   -9   -6    0    5    2    0.000051   -0.000000
   -9   -6    0    6    2    0.000019    0.000000
   -9   -6    0    7    2    0.000126    0.000000
   -9   -6    0    8    2   -0.000455    0.000000
   -9   -6    0    9    2   -0.000343   -0.000000
   -9   -6    0    1    3    0.000020    0.000000
   -9   -6    0    2    3   -0.000233   -0.000000
   -9   -6    0    3    3    0.000409   -0.000000
   -9   -6    0    4    3    0.000313   -0.000000
   -9   -6    0    5    3    0.000004    0.000000
   -9   -6    0    6    3    0.000053   -0.000000
   -9   -6    0    7    3    0.000176   -0.000000
   -9   -6    0    8    3   -0.000092   -0.000000
   -9   -6    0    9    3   -0.000017   -0.000000
   -9   -6    0    1    4   -0.000119   -0.000000
   -9   -6    0    2    4   -0.000029   -0.000000
   -9   -6    0    3    4    0.000313   -0.000000
   -9   -6    0    4    4   -0.000315    0.000000
   -9   -6    0    5    4   -0.000048    0.000000
   -9   -6    0    6    4   -0.000005    0.000000
   -9   -6    0    7    4   -0.000072    0.000000
   -9   -6    0    8    4    0.000038   -0.000000
   -9   -6    0    9    4    0.000036    0.000000
   -9   -6    0    1    5   -0.000010    0.000000
   -9   -6    0    2    5   -0.000051    0.000000
   -9   -6    0    3    5   -0.000004    0.000000
   -9   -6    0    4    5    0.000048   -0.000000
   -9   -6    0    5    5    0.000004    0.000000
   -9   -6    0    6    5    0.000005   -0.000000
   -9   -6    0    7    5    0.000002    0.000000
   -9   -6    0    8    5   -0.000004    0.000000
   -9   -6    0    9    5   -0.000010   -0.000000
   -9   -6    0    1    6    0.000014    0.000000
   -9   -6    0    2    6   -0.000019   -0.000000
   -9   -6    0    3    6   -0.000053    0.000000
   -9   -6    0    4    6    0.000005   -0.000000
   -9   -6    0    5    6    0.000005    0.000000
   -9   -6    0    6    6    0.000018    0.000000
   -9   -6    0    7    6    0.000001    0.000000
   -9   -6    0    8    6    0.000009   -0.000000
   -9   -6    0    9    6   -0.000003   -0.000000
   -9   -6    0    1    7   -0.000025    0.000000
   -9   -6    0    2    7   -0.000126   -0.000000
   -9   -6    0    3    7   -0.000176   -0.000000
   -9   -6    0    4    7    0.000072    0.000000
   -9   -6    0    5    7    0.000002    0.000000
   -9   -6    0    6    7    0.000001    0.000000
   -9   -6    0    7    7    0.000006    0.000000
   -9   -6    0    8    7   -0.000003    0.000000
   -9   -6    0    9    7    0.000006    0.000000
   -9   -6    0    1    8    0.000002   -0.000000
   -9   -6    0    2    8    0.000455   -0.000000
   -9   -6    0    3    8    0.000092   -0.000000
   -9   -6    0    4    8   -0.000038    0.000000
   -9   -6    0    5    8   -0.000004    0.000000
   -9   -6    0    6    8    0.000009   -0.000000
   -9   -6    0    7    8   -0.000003   -0.000000
   -9   -6    0    8    8   -0.000003    0.000000
   -9   -6    0    9    8   -0.000008   -0.000000
   -9   -6    0    1    9   -0.000027    0.000000
   -9   -6    0    2    9    0.000343   -0.000000
   -9   -6    0    3    9    0.000017   -0.000000
   -9   -6    0    4    9   -0.000036   -0.000000
   -9   -6    0    5    9   -0.000010   -0.000000
   -9   -6    0    6    9   -0.000003    0.000000
   -9   -6    0    7    9    0.000006    0.000000
   -9   -6    0    8    9   -0.000008   -0.000000
   -9   -6    0    9    9   -0.000016   -0.000000
   -9   -5    0    1    1   -0.000039   -0.000000
   -9   -5    0    2    1   -0.000421   -0.000000
   -9   -5    0    3    1   -0.000161   -0.000000
   -9   -5    0    4    1    0.000190   -0.000000
   -9   -5    0    5    1   -0.000008    0.000000
   -9   -5    0    6    1   -0.000069   -0.000000
   -9   -5    0    7    1   -0.000021    0.000000
   -9   -5    0    8    1    0.000016   -0.000000
   -9   -5    0    9    1    0.000036    0.000000
   -9   -5    0    1    2    0.000421   -0.000000
   -9   -5    0    2    2   -0.000493   -0.000000
   -9   -5    0    3    2   -0.002401   -0.000000
   -9   -5    0    4    2    0.000772    0.000000
   -9   -5    0    5    2    0.000032   -0.000000
   -9   -5    0    6    2   -0.000065    0.000000
   -9   -5    0    7    2    0.000111    0.000000
   -9   -5    0    8    2   -0.000115    0.000000
   -9   -5    0    9    2    0.000284    0.000000
   -9   -5    0    1    3    0.000161   -0.000000
   -9   -5    0    2    3   -0.002401   -0.000000
   -9   -5    0    3    3   -0.000653   -0.000000
   -9   -5    0    4    3   -0.000083    0.000000
   -9   -5    0    5    3    0.000006    0.000000
   -9   -5    0    6    3    0.000053    0.000000
   -9   -5    0    7    3   -0.000033    0.000000
   -9   -5    0    8    3    0.000077   -0.000000
   -9   -5    0    9    3    0.000032    0.000000
   -9   -5    0    1    4   -0.000190   -0.000000
   -9   -5    0    2    4    0.000772   -0.000000
   -9   -5    0    3    4   -0.000083   -0.000000
   -9   -5    0    4    4    0.000132    0.000000
   -9   -5    0    5    4   -0.000102    0.000000
   -9   -5    0    6    4   -0.000050   -0.000000
   -9   -5    0    7    4   -0.000018   -0.000000
   -9   -5    0    8    4   -0.000036   -0.000000
   -9   -5    0    9    4   -0.000019   -0.000000
   -9   -5    0    1    5   -0.000008    0.000000
   -9   -5    0    2    5   -0.000032   -0.000000
   -9   -5    0    3    5   -0.000006    0.000000
   -9   -5    0    4    5    0.000102   -0.000000
   -9   -5    0    5    5    0.000005    0.000000
   -9   -5    0    6    5   -0.000018    0.000000
   -9   -5    0    7    5   -0.000008   -0.000000
   -9   -5    0    8    5    0.000003    0.000000
   -9   -5    0    9    5    0.000007   -0.000000
   -9   -5    0    1    6   -0.000069    0.000000
   -9   -5    0    2    6    0.000065    0.000000
   -9   -5    0    3    6   -0.000053   -0.000000
   -9   -5    0    4    6    0.000050    0.000000
   -9   -5    0    5    6   -0.000018    0.000000
   -9   -5    0    6    6   -0.000024    0.000000
   -9   -5    0    7    6   -0.000024    0.000000
   -9   -5    0    8    6    0.000019    0.000000
   -9   -5    0    9    6    0.000005    0.000000
   -9   -5    0    1    7   -0.000021   -0.000000
   -9   -5    0    2    7   -0.000111    0.000000
   -9   -5    0    3    7    0.000032    0.000000
   -9   -5    0    4    7    0.000018   -0.000000
   -9   -5    0    5    7   -0.000008    0.000000
   -9   -5    0    6    7   -0.000024   -0.000000
   -9   -5    0    7    7   -0.000018   -0.000000
   -9   -5    0    8    7    0.000020    0.000000
   -9   -5    0    9    7    0.000017    0.000000
   -9   -5    0    1    8    0.000016   -0.000000
   -9   -5    0    2    8    0.000115    0.000000
   -9   -5    0    3    8   -0.000077    0.000000
   -9   -5    0    4    8    0.000036   -0.000000
   -9   -5    0    5    8    0.000003   -0.000000
   -9   -5    0    6    8    0.000019    0.000000
   -9   -5    0    7    8    0.000020   -0.000000
   -9   -5    0    8    8    0.000009   -0.000000
   -9   -5    0    9    8    0.000006    0.000000
   -9   -5    0    1    9    0.000036    0.000000
   -9   -5    0    2    9   -0.000284    0.000000
   -9   -5    0    3    9   -0.000032   -0.000000
   -9   -5    0    4    9    0.000019    0.000000
   -9   -5    0    5    9    0.000007   -0.000000
   -9   -5    0    6    9    0.000005    0.000000
   -9   -5    0    7    9    0.000017   -0.000000
   -9   -5    0    8    9    0.000006    0.000000
   -9   -5    0    9    9    0.000011   -0.000000
   -9   -4    0    1    1   -0.000041    0.000000
   -9   -4    0    2    1   -0.000423   -0.000000
   -9   -4    0    3    1    0.000090   -0.000000
   -9   -4    0    4    1   -0.000232    0.000000
   -9   -4    0    5    1   -0.000007    0.000000
   -9   -4    0    6    1   -0.000051   -0.000000
   -9   -4    0    7    1   -0.000048   -0.000000
   -9   -4    0    8    1    0.000022   -0.000000
   -9   -4    0    9    1    0.000030   -0.000000
   -9   -4    0    1    2    0.000423   -0.000000
   -9   -4    0    2    2   -0.000502    0.000000
   -9   -4    0    3    2   -0.000533    0.000000
   -9   -4    0    4    2   -0.002467    0.000000
   -9   -4    0    5    2    0.000032   -0.000000
   -9   -4    0    6    2    0.000063   -0.000000
   -9   -4    0    7    2   -0.000111   -0.000000
   -9   -4    0    8    2    0.000303    0.000000
   -9   -4    0    9    2    0.000043   -0.000000
   -9   -4    0    1    3   -0.000090   -0.000000
   -9   -4    0    2    3   -0.000533   -0.000000
   -9   -4    0    3    3   -0.000134    0.000000
   -9   -4    0    4    3   -0.000381   -0.000000
   -9   -4    0    5    3   -0.000084    0.000000
   -9   -4    0    6    3   -0.000032   -0.000000
   -9   -4    0    7    3   -0.000000    0.000000
   -9   -4    0    8    3   -0.000003    0.000000
   -9   -4    0    9    3    0.000008   -0.000000
   -9   -4    0    1    4    0.000232    0.000000
   -9   -4    0    2    4   -0.002467   -0.000000
   -9   -4    0    3    4   -0.000381    0.000000
   -9   -4    0    4    4   -0.000376   -0.000000
   -9   -4    0    5    4    0.000057    0.000000
   -9   -4    0    6    4    0.000021   -0.000000
   -9   -4    0    7    4    0.000075   -0.000000
   -9   -4    0    8    4   -0.000007   -0.000000
   -9   -4    0    9    4    0.000088   -0.000000
   -9   -4    0    1    5   -0.000007   -0.000000
   -9   -4    0    2    5   -0.000032   -0.000000
   -9   -4    0    3    5    0.000084    0.000000
   -9   -4    0    4    5   -0.000057    0.000000
   -9   -4    0    5    5    0.000005    0.000000
   -9   -4    0    6    5   -0.000017    0.000000
   -9   -4    0    7    5   -0.000012    0.000000
   -9   -4    0    8    5    0.000005    0.000000
   -9   -4    0    9    5    0.000006    0.000000
   -9   -4    0    1    6   -0.000051   -0.000000
   -9   -4    0    2    6   -0.000063    0.000000
   -9   -4    0    3    6    0.000032    0.000000
   -9   -4    0    4    6   -0.000021    0.000000
   -9   -4    0    5    6   -0.000017   -0.000000
   -9   -4    0    6    6   -0.000039   -0.000000
   -9   -4    0    7    6   -0.000015    0.000000
   -9   -4    0    8    6    0.000001    0.000000
   -9   -4    0    9    6    0.000032    0.000000
   -9   -4    0    1    7   -0.000048    0.000000
   -9   -4    0    2    7    0.000111    0.000000
   -9   -4    0    3    7    0.000000   -0.000000
   -9   -4    0    4    7   -0.000075   -0.000000
   -9   -4    0    5    7   -0.000012   -0.000000
   -9   -4    0    6    7   -0.000015    0.000000
   -9   -4    0    7    7   -0.000002   -0.000000
   -9   -4    0    8    7   -0.000006   -0.000000
   -9   -4    0    9    7    0.000004    0.000000
   -9   -4    0    1    8    0.000022    0.000000
   -9   -4    0    2    8   -0.000303    0.000000
   -9   -4    0    3    8    0.000003   -0.000000
   -9   -4    0    4    8    0.000007    0.000000
   -9   -4    0    5    8    0.000005   -0.000000
   -9   -4    0    6    8    0.000001   -0.000000
   -9   -4    0    7    8   -0.000006   -0.000000
   -9   -4    0    8    8    0.000005    0.000000
   -9   -4    0    9    8    0.000004   -0.000000
   -9   -4    0    1    9    0.000030   -0.000000
   -9   -4    0    2    9   -0.000043    0.000000
   -9   -4    0    3    9   -0.000008    0.000000
   -9   -4    0    4    9   -0.000088    0.000000
   -9   -4    0    5    9    0.000006    0.000000
   -9   -4    0    6    9    0.000032    0.000000
   -9   -4    0    7    9    0.000004   -0.000000
   -9   -4    0    8    9    0.000004   -0.000000
   -9   -4    0    9    9    0.000014    0.000000
   -9   -3    0    1    1   -0.000018    0.000000
   -9   -3    0    2    1   -0.000123    0.000000
   -9   -3    0    3    1    0.000097   -0.000000
   -9   -3    0    4    1   -0.000085    0.000000
   -9   -3    0    5    1   -0.000003   -0.000000
   -9   -3    0    6    1   -0.000013    0.000000
   -9   -3    0    7    1    0.000027    0.000000
   -9   -3    0    8    1   -0.000026    0.000000
   -9   -3    0    9    1   -0.000013    0.000000
   -9   -3    0    1    2    0.000123    0.000000
   -9   -3    0    2    2    0.000652    0.000000
   -9   -3    0    3    2   -0.000139   -0.000000
   -9   -3    0    4    2   -0.000190   -0.000000
   -9   -3    0    5    2    0.000051   -0.000000
   -9   -3    0    6    2    0.000119    0.000000
   -9   -3    0    7    2   -0.000047    0.000000
   -9   -3    0    8    2   -0.000070   -0.000000
   -9   -3    0    9    2   -0.000566    0.000000
   -9   -3    0    1    3   -0.000097    0.000000
   -9   -3    0    2    3   -0.000139    0.000000
   -9   -3    0    3    3    0.000140    0.000000
   -9   -3    0    4    3    0.000470    0.000000
   -9   -3    0    5    3   -0.000036   -0.000000
   -9   -3    0    6    3    0.000036    0.000000
   -9   -3    0    7    3    0.000011    0.000000
   -9   -3    0    8    3    0.000025    0.000000
   -9   -3    0    9    3    0.000002   -0.000000
   -9   -3    0    1    4    0.000085    0.000000
   -9   -3    0    2    4   -0.000190    0.000000
   -9   -3    0    3    4    0.000471   -0.000000
   -9   -3    0    4    4   -0.000039   -0.000000
   -9   -3    0    5    4    0.000032    0.000000
   -9   -3    0    6    4    0.000186    0.000000
   -9   -3    0    7    4   -0.000050    0.000000
   -9   -3    0    8    4    0.000023   -0.000000
   -9   -3    0    9    4   -0.000103    0.000000
   -9   -3    0    1    5   -0.000003   -0.000000
   -9   -3    0    2    5   -0.000051   -0.000000
   -9   -3    0    3    5    0.000036    0.000000
   -9   -3    0    4    5   -0.000032    0.000000
   -9   -3    0    5    5    0.000003   -0.000000
   -9   -3    0    6    5    0.000004    0.000000
   -9   -3    0    7    5    0.000003   -0.000000
   -9   -3    0    8    5   -0.000006    0.000000
   -9   -3    0    9    5   -0.000009   -0.000000
   -9   -3    0    1    6   -0.000013    0.000000
   -9   -3    0    2    6   -0.000119   -0.000000
   -9   -3    0    3    6   -0.000036   -0.000000
   -9   -3    0    4    6   -0.000186   -0.000000
   -9   -3    0    5    6    0.000004   -0.000000
   -9   -3    0    6    6    0.000009   -0.000000
   -9   -3    0    7    6    0.000006   -0.000000
   -9   -3    0    8    6    0.000002   -0.000000
   -9   -3    0    9    6    0.000004    0.000000
   -9   -3    0    1    7    0.000027   -0.000000
   -9   -3    0    2    7    0.000047    0.000000
   -9   -3    0    3    7   -0.000011    0.000000
   -9   -3    0    4    7    0.000050    0.000000
   -9   -3    0    5    7    0.000003   -0.000000
   -9   -3    0    6    7    0.000006    0.000000
   -9   -3    0    7    7    0.000014    0.000000
   -9   -3    0    8    7   -0.000010   -0.000000
   -9   -3    0    9    7    0.000005    0.000000
   -9   -3    0    1    8   -0.000026   -0.000000
   -9   -3    0    2    8    0.000070   -0.000000
   -9   -3    0    3    8   -0.000025    0.000000
   -9   -3    0    4    8   -0.000023    0.000000
   -9   -3    0    5    8   -0.000006    0.000000
   -9   -3    0    6    8    0.000002    0.000000
   -9   -3    0    7    8   -0.000010    0.000000
   -9   -3    0    8    8   -0.000006    0.000000
   -9   -3    0    9    8   -0.000009    0.000000
   -9   -3    0    1    9   -0.000013    0.000000
   -9   -3    0    2    9    0.000566   -0.000000
   -9   -3    0    3    9   -0.000002   -0.000000
   -9   -3    0    4    9    0.000103   -0.000000
   -9   -3    0    5    9   -0.000009   -0.000000
   -9   -3    0    6    9    0.000004   -0.000000
   -9   -3    0    7    9    0.000005    0.000000
   -9   -3    0    8    9   -0.000009    0.000000
   -9   -3    0    9    9   -0.000013    0.000000
   -9   -2    0    1    1   -0.000045    0.000000
   -9   -2    0    2    1   -0.000379   -0.000000
   -9   -2    0    3    1    0.000016    0.000000
   -9   -2    0    4    1   -0.000127    0.000000
   -9   -2    0    5    1   -0.000002    0.000000
   -9   -2    0    6    1    0.000007    0.000000
   -9   -2    0    7    1    0.000014    0.000000
   -9   -2    0    8    1   -0.000006    0.000000
   -9   -2    0    9    1    0.000006    0.000000
   -9   -2    0    1    2    0.000378   -0.000000
   -9   -2    0    2    2    0.000283    0.000000
   -9   -2    0    3    2    0.000725   -0.000000
   -9   -2    0    4    2    0.001690    0.000000
   -9   -2    0    5    2    0.000066   -0.000000
   -9   -2    0    6    2    0.000050    0.000000
   -9   -2    0    7    2    0.000060   -0.000000
   -9   -2    0    8    2   -0.000120    0.000000
   -9   -2    0    9    2   -0.000164    0.000000
   -9   -2    0    1    3   -0.000016    0.000000
   -9   -2    0    2    3    0.000725    0.000000
   -9   -2    0    3    3   -0.000240   -0.000000
   -9   -2    0    4    3    0.000044    0.000000
   -9   -2    0    5    3    0.000007    0.000000
   -9   -2    0    6    3    0.000107   -0.000000
   -9   -2    0    7    3   -0.000006   -0.000000
[...]
   11    4    0    7    1   -0.000011   -0.000000
   11    4    0    8    1   -0.000001    0.000000
   11    4    0    9    1   -0.000000   -0.000000
   11    4    0    1    2   -0.000242    0.000000
   11    4    0    2    2   -0.000708    0.000000
   11    4    0    3    2    0.000000    0.000000
   11    4    0    4    2   -0.001367    0.000000
   11    4    0    5    2    0.000026   -0.000000
   11    4    0    6    2    0.000000   -0.000000
   11    4    0    7    2   -0.000122    0.000000
   11    4    0    8    2    0.000155    0.000000
   11    4    0    9    2    0.000000    0.000000
   11    4    0    1    3   -0.000000   -0.000000
   11    4    0    2    3   -0.000000   -0.000000
   11    4    0    3    3    0.000253    0.000000
   11    4    0    4    3   -0.000000   -0.000000
   11    4    0    5    3    0.000000   -0.000000
   11    4    0    6    3    0.000007    0.000000
   11    4    0    7    3    0.000000   -0.000000
   11    4    0    8    3    0.000000   -0.000000
   11    4    0    9    3    0.000019   -0.000000
   11    4    0    1    4    0.000008    0.000000
   11    4    0    2    4   -0.001367   -0.000000
   11    4    0    3    4    0.000000    0.000000
   11    4    0    4    4   -0.000318    0.000000
   11    4    0    5    4    0.000049   -0.000000
   11    4    0    6    4    0.000000   -0.000000
   11    4    0    7    4   -0.000011    0.000000
   11    4    0    8    4    0.000006    0.000000
   11    4    0    9    4    0.000000    0.000000
   11    4    0    1    5   -0.000004   -0.000000
   11    4    0    2    5   -0.000026    0.000000
   11    4    0    3    5    0.000000   -0.000000
   11    4    0    4    5   -0.000049   -0.000000
   11    4    0    5    5   -0.000001    0.000000
   11    4    0    6    5    0.000000   -0.000000
   11    4    0    7    5   -0.000002    0.000000
   11    4    0    8    5    0.000001   -0.000000
   11    4    0    9    5    0.000000   -0.000000
   11    4    0    1    6    0.000000    0.000000
   11    4    0    2    6    0.000000   -0.000000
   11    4    0    3    6   -0.000007    0.000000
   11    4    0    4    6    0.000000   -0.000000
   11    4    0    5    6   -0.000000   -0.000000
   11    4    0    6    6   -0.000023   -0.000000
   11    4    0    7    6    0.000000    0.000000
   11    4    0    8    6   -0.000000    0.000000
   11    4    0    9    6    0.000019    0.000000
   11    4    0    1    7   -0.000011    0.000000
   11    4    0    2    7    0.000122    0.000000
   11    4    0    3    7    0.000000   -0.000000
   11    4    0    4    7    0.000011    0.000000
   11    4    0    5    7   -0.000002    0.000000
   11    4    0    6    7   -0.000000    0.000000
   11    4    0    7    7    0.000000   -0.000000
   11    4    0    8    7   -0.000000   -0.000000
   11    4    0    9    7   -0.000000   -0.000000
   11    4    0    1    8   -0.000001    0.000000
   11    4    0    2    8   -0.000155    0.000000
   11    4    0    3    8    0.000000   -0.000000
   11    4    0    4    8   -0.000006    0.000000
   11    4    0    5    8    0.000001    0.000000
   11    4    0    6    8    0.000000   -0.000000
   11    4    0    7    8   -0.000000   -0.000000
   11    4    0    8    8    0.000010   -0.000000
   11    4    0    9    8    0.000000    0.000000
   11    4    0    1    9    0.000000    0.000000
   11    4    0    2    9    0.000000   -0.000000
   11    4    0    3    9   -0.000019   -0.000000
   11    4    0    4    9    0.000000    0.000000
   11    4    0    5    9    0.000000    0.000000
   11    4    0    6    9    0.000019   -0.000000
   11    4    0    7    9    0.000000    0.000000
   11    4    0    8    9   -0.000000   -0.000000
   11    4    0    9    9    0.000029   -0.000000
   11    5    0    1    1    0.000034   -0.000000
   11    5    0    2    1   -0.000162    0.000000
   11    5    0    3    1    0.000026    0.000000
   11    5    0    4    1    0.000010    0.000000
   11    5    0    5    1    0.000013    0.000000
   11    5    0    6    1   -0.000009    0.000000
   11    5    0    7    1    0.000024   -0.000000
   11    5    0    8    1   -0.000023    0.000000
   11    5    0    9    1   -0.000014   -0.000000
   11    5    0    1    2    0.000162   -0.000000
   11    5    0    2    2   -0.000428    0.000000
   11    5    0    3    2   -0.000436    0.000000
   11    5    0    4    2   -0.000648    0.000000
   11    5    0    5    2    0.000048    0.000000
   11    5    0    6    2    0.000141   -0.000000
   11    5    0    7    2    0.000056   -0.000000
   11    5    0    8    2   -0.000045   -0.000000
   11    5    0    9    2   -0.000241   -0.000000
   11    5    0    1    3   -0.000026    0.000000
   11    5    0    2    3   -0.000436   -0.000000
   11    5    0    3    3    0.000444   -0.000000
   11    5    0    4    3    0.000109   -0.000000
   11    5    0    5    3   -0.000022   -0.000000
   11    5    0    6    3    0.000016   -0.000000
   11    5    0    7    3   -0.000027    0.000000
   11    5    0    8    3    0.000046   -0.000000
   11    5    0    9    3   -0.000021    0.000000
   11    5    0    1    4   -0.000010    0.000000
   11    5    0    2    4   -0.000648   -0.000000
   11    5    0    3    4    0.000109    0.000000
   11    5    0    4    4   -0.000020   -0.000000
   11    5    0    5    4    0.000030   -0.000000
   11    5    0    6    4    0.000106   -0.000000
   11    5    0    7    4    0.000018    0.000000
   11    5    0    8    4    0.000039   -0.000000
   11    5    0    9    4    0.000010    0.000000
   11    5    0    1    5    0.000013   -0.000000
   11    5    0    2    5   -0.000048   -0.000000
   11    5    0    3    5    0.000022   -0.000000
   11    5    0    4    5   -0.000030   -0.000000
   11    5    0    5    5   -0.000000   -0.000000
   11    5    0    6    5    0.000006   -0.000000
   11    5    0    7    5    0.000009   -0.000000
   11    5    0    8    5   -0.000008   -0.000000
   11    5    0    9    5   -0.000007   -0.000000
   11    5    0    1    6   -0.000009   -0.000000
   11    5    0    2    6   -0.000141    0.000000
   11    5    0    3    6   -0.000015   -0.000000
   11    5    0    4    6   -0.000106   -0.000000
   11    5    0    5    6    0.000006    0.000000
   11    5    0    6    6    0.000004    0.000000
   11    5    0    7    6    0.000014   -0.000000
   11    5    0    8    6   -0.000007    0.000000
   11    5    0    9    6   -0.000005   -0.000000
   11    5    0    1    7    0.000024    0.000000
   11    5    0    2    7   -0.000056   -0.000000
   11    5    0    3    7    0.000027    0.000000
   11    5    0    4    7   -0.000018    0.000000
   11    5    0    5    7    0.000009    0.000000
   11    5    0    6    7    0.000014    0.000000
   11    5    0    7    7    0.000008   -0.000000
   11    5    0    8    7   -0.000004   -0.000000
   11    5    0    9    7   -0.000002    0.000000
   11    5    0    1    8   -0.000023   -0.000000
   11    5    0    2    8    0.000045   -0.000000
   11    5    0    3    8   -0.000046   -0.000000
   11    5    0    4    8   -0.000039   -0.000000
   11    5    0    5    8   -0.000008    0.000000
   11    5    0    6    8   -0.000007   -0.000000
   11    5    0    7    8   -0.000004    0.000000
   11    5    0    8    8   -0.000007   -0.000000
   11    5    0    9    8    0.000002    0.000000
   11    5    0    1    9   -0.000014    0.000000
   11    5    0    2    9    0.000241    0.000000
   11    5    0    3    9    0.000021    0.000000
   11    5    0    4    9   -0.000010    0.000000
   11    5    0    5    9   -0.000007    0.000000
   11    5    0    6    9   -0.000005    0.000000
   11    5    0    7    9   -0.000002    0.000000
   11    5    0    8    9    0.000002    0.000000
   11    5    0    9    9    0.000004    0.000000
   11    6    0    1    1    0.000034    0.000000
   11    6    0    2    1   -0.000159    0.000000
   11    6    0    3    1    0.000019    0.000000
   11    6    0    4    1    0.000019   -0.000000
   11    6    0    5    1    0.000014    0.000000
   11    6    0    6    1    0.000017   -0.000000
   11    6    0    7    1   -0.000021    0.000000
   11    6    0    8    1    0.000000   -0.000000
   11    6    0    9    1   -0.000027    0.000000
   11    6    0    1    2    0.000159    0.000000
   11    6    0    2    2   -0.000425    0.000000
   11    6    0    3    2   -0.000780    0.000000
   11    6    0    4    2   -0.000053   -0.000000
   11    6    0    5    2    0.000048    0.000000
   11    6    0    6    2    0.000119    0.000000
   11    6    0    7    2    0.000094    0.000000
   11    6    0    8    2   -0.000186   -0.000000
   11    6    0    9    2   -0.000159   -0.000000
   11    6    0    1    3   -0.000019    0.000000
   11    6    0    2    3   -0.000780   -0.000000
   11    6    0    3    3    0.000187   -0.000000
   11    6    0    4    3    0.000258   -0.000000
   11    6    0    5    3    0.000013   -0.000000
   11    6    0    6    3    0.000052   -0.000000
   11    6    0    7    3    0.000086   -0.000000
   11    6    0    8    3   -0.000028    0.000000
   11    6    0    9    3    0.000047    0.000000
   11    6    0    1    4   -0.000019   -0.000000
   11    6    0    2    4   -0.000053    0.000000
   11    6    0    3    4    0.000258   -0.000000
   11    6    0    4    4    0.000234    0.000000
   11    6    0    5    4   -0.000036    0.000000
   11    6    0    6    4   -0.000050    0.000000
   11    6    0    7    4   -0.000017    0.000000
   11    6    0    8    4   -0.000032   -0.000000
   11    6    0    9    4    0.000008   -0.000000
   11    6    0    1    5    0.000014   -0.000000
   11    6    0    2    5   -0.000048   -0.000000
   11    6    0    3    5   -0.000013   -0.000000
   11    6    0    4    5    0.000036    0.000000
   11    6    0    5    5   -0.000000    0.000000
   11    6    0    6    5    0.000010    0.000000
   11    6    0    7    5    0.000001    0.000000
   11    6    0    8    5   -0.000002    0.000000
   11    6    0    9    5   -0.000011   -0.000000
   11    6    0    1    6    0.000017   -0.000000
   11    6    0    2    6   -0.000119   -0.000000
   11    6    0    3    6   -0.000052   -0.000000
   11    6    0    4    6    0.000050    0.000000
   11    6    0    5    6    0.000010    0.000000
   11    6    0    6    6    0.000020   -0.000000
   11    6    0    7    6    0.000005    0.000000
   11    6    0    8    6   -0.000000   -0.000000
   11    6    0    9    6   -0.000008    0.000000
   11    6    0    1    7   -0.000021   -0.000000
   11    6    0    2    7   -0.000094   -0.000000
   11    6    0    3    7   -0.000086   -0.000000
   11    6    0    4    7    0.000017    0.000000
   11    6    0    5    7    0.000001   -0.000000
   11    6    0    6    7    0.000005    0.000000
   11    6    0    7    7   -0.000008   -0.000000
   11    6    0    8    7   -0.000000    0.000000
   11    6    0    9    7   -0.000005   -0.000000
   11    6    0    1    8    0.000000    0.000000
   11    6    0    2    8    0.000186   -0.000000
   11    6    0    3    8    0.000028    0.000000
   11    6    0    4    8    0.000032   -0.000000
   11    6    0    5    8   -0.000002   -0.000000
   11    6    0    6    8   -0.000000   -0.000000
   11    6    0    7    8   -0.000000   -0.000000
   11    6    0    8    8   -0.000000    0.000000
   11    6    0    9    8    0.000006   -0.000000
   11    6    0    1    9   -0.000027   -0.000000
   11    6    0    2    9    0.000159   -0.000000
   11    6    0    3    9   -0.000047    0.000000
   11    6    0    4    9   -0.000008   -0.000000
   11    6    0    5    9   -0.000011    0.000000
   11    6    0    6    9   -0.000008   -0.000000
   11    6    0    7    9   -0.000005    0.000000
   11    6    0    8    9    0.000006   -0.000000
   11    6    0    9    9   -0.000002    0.000000
   11    7    0    1    1   -0.000062   -0.000000
   11    7    0    2    1    0.000243   -0.000000
   11    7    0    3    1   -0.000011   -0.000000
   11    7    0    4    1    0.000008   -0.000000
   11    7    0    5    1   -0.000003    0.000000
   11    7    0    6    1   -0.000009    0.000000
   11    7    0    7    1    0.000004   -0.000000
   11    7    0    8    1    0.000002    0.000000
   11    7    0    9    1   -0.000002    0.000000
   11    7    0    1    2   -0.000243   -0.000000
   11    7    0    2    2   -0.000703   -0.000000
   11    7    0    3    2   -0.001183   -0.000000
   11    7    0    4    2    0.000684    0.000000
   11    7    0    5    2    0.000027   -0.000000
   11    7    0    6    2   -0.000106   -0.000000
   11    7    0    7    2    0.000061    0.000000
   11    7    0    8    2   -0.000078    0.000000
   11    7    0    9    2    0.000134   -0.000000
   11    7    0    1    3    0.000011   -0.000000
   11    7    0    2    3   -0.001183    0.000000
   11    7    0    3    3   -0.000178    0.000000
   11    7    0    4    3    0.000251    0.000000
   11    7    0    5    3    0.000043   -0.000000
   11    7    0    6    3   -0.000004    0.000000
   11    7    0    7    3    0.000009   -0.000000
   11    7    0    8    3    0.000007    0.000000
   11    7    0    9    3    0.000010   -0.000000
   11    7    0    1    4   -0.000008   -0.000000
   11    7    0    2    4    0.000684   -0.000000
   11    7    0    3    4    0.000251   -0.000000
   11    7    0    4    4    0.000109    0.000000
   11    7    0    5    4   -0.000025    0.000000
   11    7    0    6    4    0.000005   -0.000000
   11    7    0    7    4    0.000005    0.000000
   11    7    0    8    4    0.000017    0.000000
   11    7    0    9    4    0.000006   -0.000000
   11    7    0    1    5   -0.000003    0.000000
   11    7    0    2    5   -0.000027    0.000000
   11    7    0    3    5   -0.000043   -0.000000
   11    7    0    4    5    0.000025   -0.000000
   11    7    0    5    5   -0.000001    0.000000
   11    7    0    6    5   -0.000002   -0.000000
   11    7    0    7    5    0.000001    0.000000
   11    7    0    8    5   -0.000001    0.000000
   11    7    0    9    5    0.000001   -0.000000
   11    7    0    1    6   -0.000009    0.000000
   11    7    0    2    6    0.000106   -0.000000
   11    7    0    3    6    0.000004    0.000000
   11    7    0    4    6   -0.000005   -0.000000
   11    7    0    5    6   -0.000002    0.000000
   11    7    0    6    6   -0.000006    0.000000
   11    7    0    7    6   -0.000010   -0.000000
   11    7    0    8    6    0.000008    0.000000
   11    7    0    9    6    0.000004    0.000000
   11    7    0    1    7    0.000004    0.000000
   11    7    0    2    7   -0.000061    0.000000
   11    7    0    3    7   -0.000009   -0.000000
   11    7    0    4    7   -0.000005    0.000000
   11    7    0    5    7    0.000001    0.000000
   11    7    0    6    7   -0.000010   -0.000000
   11    7    0    7    7   -0.000018    0.000000
   11    7    0    8    7    0.000014    0.000000
   11    7    0    9    7    0.000009   -0.000000
   11    7    0    1    8    0.000002    0.000000
   11    7    0    2    8    0.000078    0.000000
   11    7    0    3    8   -0.000007   -0.000000
   11    7    0    4    8   -0.000017    0.000000
   11    7    0    5    8   -0.000001    0.000000
   11    7    0    6    8    0.000008    0.000000
   11    7    0    7    8    0.000014   -0.000000
   11    7    0    8    8    0.000024   -0.000000
   11    7    0    9    8    0.000008    0.000000
   11    7    0    1    9   -0.000002    0.000000
   11    7    0    2    9   -0.000134    0.000000
   11    7    0    3    9   -0.000010    0.000000
   11    7    0    4    9   -0.000006   -0.000000
   11    7    0    5    9    0.000001    0.000000
   11    7    0    6    9    0.000004   -0.000000
   11    7    0    7    9    0.000009   -0.000000
   11    7    0    8    9    0.000008   -0.000000
   11    7    0    9    9    0.000015   -0.000000
   12    6    0    1    1    0.000103   -0.000000
   12    6    0    2    1    0.000623   -0.000000
   12    6    0    3    1   -0.000000    0.000000
   12    6    0    4    1    0.000008   -0.000000
   12    6    0    5    1    0.000003    0.000000
   12    6    0    6    1   -0.000000    0.000000
   12    6    0    7    1   -0.000000    0.000000
   12    6    0    8    1    0.000002   -0.000000
   12    6    0    9    1   -0.000000   -0.000000
   12    6    0    1    2   -0.000623    0.000000
   12    6    0    2    2    0.001296   -0.000000
   12    6    0    3    2    0.000000   -0.000000
   12    6    0    4    2   -0.000003   -0.000000
   12    6    0    5    2   -0.000162    0.000000
   12    6    0    6    2   -0.000000   -0.000000
   12    6    0    7    2    0.000000   -0.000000
   12    6    0    8    2   -0.000000   -0.000000
   12    6    0    9    2   -0.000000   -0.000000
   12    6    0    1    3    0.000000    0.000000
   12    6    0    2    3   -0.000000    0.000000
   12    6    0    3    3   -0.000663    0.000000
   12    6    0    4    3    0.000000    0.000000
   12    6    0    5    3   -0.000000   -0.000000
   12    6    0    6    3    0.000032    0.000000
   12    6    0    7    3   -0.000000   -0.000000
   12    6    0    8    3    0.000000    0.000000
   12    6    0    9    3   -0.000097   -0.000000
   12    6    0    1    4   -0.000008   -0.000000
   12    6    0    2    4   -0.000003    0.000000
   12    6    0    3    4   -0.000000   -0.000000
   12    6    0    4    4   -0.000663    0.000000
   12    6    0    5    4   -0.000001    0.000000
   12    6    0    6    4    0.000000   -0.000000
   12    6    0    7    4    0.000031   -0.000000
   12    6    0    8    4   -0.000097   -0.000000
   12    6    0    9    4    0.000000    0.000000
   12    6    0    1    5    0.000003   -0.000000
   12    6    0    2    5    0.000162    0.000000
   12    6    0    3    5   -0.000000   -0.000000
   12    6    0    4    5    0.000001    0.000000
   12    6    0    5    5   -0.000007    0.000000
   12    6    0    6    5   -0.000000    0.000000
   12    6    0    7    5    0.000001    0.000000
   12    6    0    8    5    0.000000    0.000000
   12    6    0    9    5   -0.000000    0.000000
   12    6    0    1    6    0.000000   -0.000000
   12    6    0    2    6   -0.000000    0.000000
   12    6    0    3    6   -0.000032   -0.000000
   12    6    0    4    6    0.000000   -0.000000
   12    6    0    5    6    0.000000    0.000000
   12    6    0    6    6   -0.000020    0.000000
   12    6    0    7    6   -0.000000    0.000000
   12    6    0    8    6    0.000000   -0.000000
   12    6    0    9    6    0.000008   -0.000000
   12    6    0    1    7   -0.000000    0.000000
   12    6    0    2    7   -0.000000    0.000000
   12    6    0    3    7   -0.000000   -0.000000
   12    6    0    4    7   -0.000031    0.000000
   12    6    0    5    7    0.000001   -0.000000
   12    6    0    6    7   -0.000000    0.000000
   12    6    0    7    7   -0.000021   -0.000000
   12    6    0    8    7    0.000008    0.000000
   12    6    0    9    7    0.000000   -0.000000
   12    6    0    1    8    0.000002    0.000000
   12    6    0    2    8    0.000000    0.000000
   12    6    0    3    8    0.000000    0.000000
   12    6    0    4    8    0.000097    0.000000
   12    6    0    5    8    0.000000   -0.000000
   12    6    0    6    8   -0.000000    0.000000
   12    6    0    7    8    0.000008   -0.000000
   12    6    0    8    8    0.000021    0.000000
   12    6    0    9    8    0.000000   -0.000000
   12    6    0    1    9    0.000000    0.000000
   12    6    0    2    9   -0.000000   -0.000000
   12    6    0    3    9    0.000097   -0.000000
   12    6    0    4    9    0.000000    0.000000
   12    6    0    5    9    0.000000    0.000000
   12    6    0    6    9    0.000008    0.000000
   12    6    0    7    9    0.000000    0.000000
   12    6    0    8    9    0.000000   -0.000000
   12    6    0    9    9    0.000020   -0.000000
