 written on 23Sep2023 at 22:00:23 
           5
         601
    3    2    1    1    2    2    1    1    1    1    1    2    2    1    1
    1    1    1    1    1    1    2    2    1    1    1    1    1    1    1
    1    1    1    1    2    2    1    1    1    1    1    1    1    1    1
    1    1    1    1    1    2    2    1    1    1    1    1    1    1    1
    1    1    1    1    1    1    1    1    1    2    2    1    1    1    1
    1    1    1    1    1    1    1    1    1    1    1    1    1    1    1
    1    2    3    1    1    1    1    1    1    1    1    1    1    1    1
    1    1    1    1    1    1    1    1    1    1    1    3    1    1    1
    1    1    1    1    1    1    1    1    1    1    1    1    1    1    1
    1    1    1    1    1    1    2    1    1    1    1    1    1    1    1
    1    1    1    1    1    1    1    1    1    1    1    1    1    1    1
    2    1    1    1    1    1    1    1    1    1    1    1    1    1    1
    1    1    1    1    1    1    1    1    1    1    2    1    1    1    1
    1    1    1    1    1    1    1    1    1    1    1    1    1    1    1
    1    1    1    1    2    1    1    1    1    1    1    1    1    1    1
    1    1    1    1    1    1    1    1    1    1    1    1    1    1    2
    1    1    1    1    1    1    1    1    1    1    1    1    1    1    1
    1    1    1    1    1    1    1    1    2    1    1    1    1    1    1
    1    1    1    1    1    1    1    1    1    1    1    1    1    1    1
    1    1    1    2    1    1    1    1    1    1    1    1    1    1    1
    1    1    1    1    1    1    1    1    1    1    1    1    2    1    1
    1    1    1    1    1    1    1    1    1    1    1    1    1    1    1
    1    1    1    1    1    1    1    2    1    1    1    1    1    1    1
    1    1    1    1    1    1    1    1    1    1    1    1    1    1    1
    1    2    1    1    1    1    1    1    1    1    1    1    1    1    1
    1    1    1    1    1    1    1    1    1    1    1    2    1    1    1
    1    1    1    1    1    1    1    1    1    1    1    1    1    1    1
    1    1    1    1    1    2    1    1    1    1    1    1    1    1    1
    1    1    1    1    1    1    1    1    1    1    1    1    1    1    1
    2    1    1    1    1    1    1    1    1    1    1    1    1    1    1
    1    1    1    1    1    1    1    1    1    2    1    1    1    1    1
    1    1    1    1    1    1    1    1    1    1    1    1    1    1    1
    1    1    1    1    3    1    1    1    1    1    1    1    1    1    1
    1    1    1    1    1    1    1    1    1    1    1    1    1    3    2
    1    1    1    1    1    1    1    1    1    1    1    1    1    1    1
    1    1    1    1    1    2    2    1    1    1    1    1    1    1    1
    1    1    1    1    1    1    1    1    1    2    2    1    1    1    1
    1    1    1    1    1    1    1    1    1    1    2    2    1    1    1
    1    1    1    1    1    1    1    1    2    2    1    1    1    1    1
    1    1    1    2    2    1    1    1    1    1    2    2    1    1    2
    3
  -16   -8    0    1    1   -0.000001   -0.000000
  -16   -8    0    2    1    0.000000    0.000000
  -16   -8    0    3    1   -0.000000   -0.000000
  -16   -8    0    4    1   -0.000000   -0.000000
  -16   -8    0    5    1    0.000000    0.000000
  -16   -8    0    1    2    0.000000   -0.000000
  -16   -8    0    2    2    0.000001    0.000000
  -16   -8    0    3    2    0.000000   -0.000000
  -16   -8    0    4    2    0.000000   -0.000000
  -16   -8    0    5    2   -0.000000    0.000000
  -16   -8    0    1    3   -0.000000    0.000000
  -16   -8    0    2    3    0.000000    0.000000
  -16   -8    0    3    3    0.000001    0.000000
  -16   -8    0    4    3   -0.000000   -0.000000
  -16   -8    0    5    3   -0.000000   -0.000000
  -16   -8    0    1    4   -0.000000    0.000000
  -16   -8    0    2    4    0.000000    0.000000
  -16   -8    0    3    4   -0.000000    0.000000
  -16   -8    0    4    4   -0.000000   -0.000000
  -16   -8    0    5    4   -0.000000    0.000000
  -16   -8    0    1    5    0.000000   -0.000000
  -16   -8    0    2    5   -0.000000   -0.000000
  -16   -8    0    3    5   -0.000000    0.000000
  -16   -8    0    4    5   -0.000000   -0.000000
  -16   -8    0    5    5   -0.000000    0.000000
  -15   -9    0    1    1    0.000001    0.000000
  -15   -9    0    2    1   -0.000000   -0.000000
  -15   -9    0    3    1    0.000000   -0.000000
  -15   -9    0    4    1   -0.000000   -0.000000
  -15   -9    0    5    1    0.000000   -0.000000
  -15   -9    0    1    2   -0.000000    0.000000
  -15   -9    0    2    2    0.000001   -0.000000
  -15   -9    0    3    2    0.000000   -0.000000
  -15   -9    0    4    2    0.000000    0.000000
  -15   -9    0    5    2   -0.000000    0.000000
  -15   -9    0    1    3    0.000000    0.000000
  -15   -9    0    2    3    0.000000    0.000000
  -15   -9    0    3    3    0.000001    0.000000
  -15   -9    0    4    3   -0.000000   -0.000000
  -15   -9    0    5    3    0.000000    0.000000
  -15   -9    0    1    4   -0.000000    0.000000
  -15   -9    0    2    4    0.000000   -0.000000
  -15   -9    0    3    4   -0.000000    0.000000
  -15   -9    0    4    4    0.000001    0.000000
  -15   -9    0    5    4   -0.000000    0.000000
  -15   -9    0    1    5    0.000000    0.000000
  -15   -9    0    2    5   -0.000000   -0.000000
  -15   -9    0    3    5    0.000000   -0.000000
  -15   -9    0    4    5   -0.000000   -0.000000
  -15   -9    0    5    5    0.000001   -0.000000
  -15   -8    0    1    1   -0.000000    0.000000
  -15   -8    0    2    1    0.000000   -0.000000
  -15   -8    0    3    1   -0.000000   -0.000000
  -15   -8    0    4    1   -0.000000   -0.000000
  -15   -8    0    5    1    0.000000   -0.000000
  -15   -8    0    1    2    0.000000    0.000000
  -15   -8    0    2    2    0.000001    0.000000
  -15   -8    0    3    2    0.000000   -0.000000
  -15   -8    0    4    2   -0.000000    0.000000
  -15   -8    0    5    2   -0.000000    0.000000
  -15   -8    0    1    3   -0.000000    0.000000
  -15   -8    0    2    3    0.000000    0.000000
  -15   -8    0    3    3    0.000000   -0.000000
  -15   -8    0    4    3   -0.000000   -0.000000
  -15   -8    0    5    3    0.000000   -0.000000
  -15   -8    0    1    4   -0.000000    0.000000
  -15   -8    0    2    4   -0.000000   -0.000000
  -15   -8    0    3    4   -0.000000    0.000000
  -15   -8    0    4    4   -0.000000    0.000000
  -15   -8    0    5    4   -0.000000   -0.000000
  -15   -8    0    1    5    0.000000    0.000000
  -15   -8    0    2    5   -0.000000   -0.000000
  -15   -8    0    3    5    0.000000   -0.000000
  -15   -8    0    4    5   -0.000000    0.000000
  -15   -8    0    5    5   -0.000000   -0.000000
  -15   -7    0    1    1   -0.000000    0.000000
  -15   -7    0    2    1    0.000000    0.000000
  -15   -7    0    3    1    0.000000    0.000000
  -15   -7    0    4    1    0.000000    0.000000
  -15   -7    0    5    1   -0.000000    0.000000
  -15   -7    0    1    2    0.000000   -0.000000
  -15   -7    0    2    2    0.000001   -0.000000
  -15   -7    0    3    2    0.000000    0.000000
  -15   -7    0    4    2    0.000000   -0.000000
  -15   -7    0    5    2   -0.000000   -0.000000
  -15   -7    0    1    3    0.000000   -0.000000
  -15   -7    0    2    3    0.000000   -0.000000
  -15   -7    0    3    3    0.000000    0.000000
  -15   -7    0    4    3   -0.000000    0.000000
  -15   -7    0    5    3   -0.000000   -0.000000
  -15   -7    0    1    4    0.000000   -0.000000
  -15   -7    0    2    4    0.000000    0.000000
  -15   -7    0    3    4   -0.000000   -0.000000
  -15   -7    0    4    4   -0.000000   -0.000000
  -15   -7    0    5    4   -0.000000    0.000000
  -15   -7    0    1    5   -0.000000   -0.000000
  -15   -7    0    2    5   -0.000000    0.000000
  -15   -7    0    3    5   -0.000000    0.000000
  -15   -7    0    4    5   -0.000000   -0.000000
  -15   -7    0    5    5   -0.000000    0.000000
  -15   -6    0    1    1    0.000001   -0.000000
  -15   -6    0    2    1   -0.000000    0.000000
  -15   -6    0    3    1   -0.000000    0.000000
  -15   -6    0    4    1    0.000001   -0.000000
  -15   -6    0    5    1   -0.000000    0.000000
  -15   -6    0    1    2   -0.000000   -0.000000
  -15   -6    0    2    2    0.000001   -0.000000
  -15   -6    0    3    2   -0.000000    0.000000
  -15   -6    0    4    2    0.000000   -0.000000
  -15   -6    0    5    2   -0.000000   -0.000000
  -15   -6    0    1    3   -0.000000   -0.000000
  -15   -6    0    2    3   -0.000000    0.000000
  -15   -6    0    3    3    0.000001   -0.000000
  -15   -6    0    4    3   -0.000000    0.000000
  -15   -6    0    5    3   -0.000000   -0.000000
  -15   -6    0    1    4    0.000001    0.000000
  -15   -6    0    2    4    0.000000    0.000000
  -15   -6    0    3    4   -0.000000   -0.000000
  -15   -6    0    4    4    0.000001   -0.000000
  -15   -6    0    5    4   -0.000000    0.000000
  -15   -6    0    1    5   -0.000000   -0.000000
  -15   -6    0    2    5   -0.000000    0.000000
  -15   -6    0    3    5   -0.000000    0.000000
  -15   -6    0    4    5   -0.000000   -0.000000
  -15   -6    0    5    5    0.000001   -0.000000
  -14  -10    0    1    1   -0.000000    0.000000
  -14  -10    0    2    1    0.000000   -0.000000
  -14  -10    0    3    1   -0.000000   -0.000000
  -14  -10    0    4    1    0.000000   -0.000000
  -14  -10    0    5    1   -0.000001   -0.000000
  -14  -10    0    1    2    0.000000    0.000000
  -14  -10    0    2    2   -0.000000   -0.000000
  -14  -10    0    3    2   -0.000000   -0.000000
  -14  -10    0    4    2    0.000000    0.000000
  -14  -10    0    5    2   -0.000000    0.000000
  -14  -10    0    1    3   -0.000000    0.000000
  -14  -10    0    2    3   -0.000000    0.000000
  -14  -10    0    3    3   -0.000001    0.000000
  -14  -10    0    4    3   -0.000000   -0.000000
  -14  -10    0    5    3    0.000000    0.000000
  -14  -10    0    1    4    0.000000    0.000000
  -14  -10    0    2    4    0.000000   -0.000000
  -14  -10    0    3    4   -0.000000    0.000000
  -14  -10    0    4    4    0.000001    0.000000
  -14  -10    0    5    4   -0.000000   -0.000000
  -14  -10    0    1    5   -0.000001    0.000000
  -14  -10    0    2    5   -0.000000   -0.000000
  -14  -10    0    3    5    0.000000   -0.000000
  -14  -10    0    4    5   -0.000000   -0.000000
  -14  -10    0    5    5    0.000001   -0.000000
  -14   -9    0    1    1   -0.000000   -0.000000
  -14   -9    0    2    1    0.000000   -0.000000
  -14   -9    0    3    1   -0.000000   -0.000000
  -14   -9    0    4    1   -0.000000   -0.000000
  -14   -9    0    5    1   -0.000000   -0.000000
  -14   -9    0    1    2    0.000000    0.000000
  -14   -9    0    2    2   -0.000001    0.000000
  -14   -9    0    3    2   -0.000000    0.000000
  -14   -9    0    4    2    0.000000    0.000000
  -14   -9    0    5    2    0.000000    0.000000
  -14   -9    0    1    3   -0.000000    0.000000
  -14   -9    0    2    3   -0.000000    0.000000
  -14   -9    0    3    3   -0.000001   -0.000000
  -14   -9    0    4    3    0.000000   -0.000000
  -14   -9    0    5    3    0.000000    0.000000
  -14   -9    0    1    4   -0.000000    0.000000
  -14   -9    0    2    4    0.000000   -0.000000
  -14   -9    0    3    4    0.000000    0.000000
  -14   -9    0    4    4   -0.000000    0.000000
  -14   -9    0    5    4    0.000000   -0.000000
  -14   -9    0    1    5   -0.000000    0.000000
  -14   -9    0    2    5    0.000000   -0.000000
  -14   -9    0    3    5    0.000000   -0.000000
  -14   -9    0    4    5    0.000000    0.000000
  -14   -9    0    5    5    0.000000   -0.000000
  -14   -8    0    1    1    0.000000   -0.000000
  -14   -8    0    2    1   -0.000000    0.000000
  -14   -8    0    3    1    0.000000    0.000000
  -14   -8    0    4    1   -0.000000    0.000000
  -14   -8    0    5    1   -0.000000    0.000000
  -14   -8    0    1    2   -0.000000   -0.000000
  -14   -8    0    2    2   -0.000000   -0.000000
  -14   -8    0    3    2    0.000000   -0.000000
  -14   -8    0    4    2   -0.000000   -0.000000
  -14   -8    0    5    2    0.000000   -0.000000
  -14   -8    0    1    3    0.000000   -0.000000
  -14   -8    0    2    3    0.000000    0.000000
  -14   -8    0    3    3    0.000000    0.000000
  -14   -8    0    4    3    0.000000    0.000000
  -14   -8    0    5    3   -0.000000    0.000000
  -14   -8    0    1    4   -0.000000   -0.000000
  -14   -8    0    2    4   -0.000000   -0.000000
  -14   -8    0    3    4    0.000000   -0.000000
  -14   -8    0    4    4   -0.000000    0.000000
  -14   -8    0    5    4    0.000000    0.000000
  -14   -8    0    1    5   -0.000000   -0.000000
  -14   -8    0    2    5    0.000000    0.000000
  -14   -8    0    3    5   -0.000000    0.000000
  -14   -8    0    4    5    0.000000   -0.000000
  -14   -8    0    5    5    0.000000   -0.000000
  -14   -7    0    1    1    0.000001    0.000000
  -14   -7    0    2    1   -0.000000    0.000000
  -14   -7    0    3    1   -0.000000   -0.000000
  -14   -7    0    4    1    0.000000   -0.000000
  -14   -7    0    5    1    0.000000    0.000000
  -14   -7    0    1    2   -0.000000   -0.000000
  -14   -7    0    2    2    0.000000    0.000000
  -14   -7    0    3    2    0.000000   -0.000000
  -14   -7    0    4    2    0.000000    0.000000
  -14   -7    0    5    2   -0.000000    0.000000
  -14   -7    0    1    3   -0.000000    0.000000
  -14   -7    0    2    3    0.000000   -0.000000
  -14   -7    0    3    3   -0.000000   -0.000000
  -14   -7    0    4    3   -0.000000   -0.000000
  -14   -7    0    5    3    0.000000   -0.000000
  -14   -7    0    1    4    0.000000    0.000000
  -14   -7    0    2    4    0.000000    0.000000
  -14   -7    0    3    4   -0.000000    0.000000
  -14   -7    0    4    4    0.000000    0.000000
  -14   -7    0    5    4    0.000000    0.000000
  -14   -7    0    1    5    0.000000   -0.000000
  -14   -7    0    2    5   -0.000000   -0.000000
  -14   -7    0    3    5    0.000000    0.000000
  -14   -7    0    4    5    0.000000    0.000000
  -14   -7    0    5    5    0.000001   -0.000000
  -14   -6    0    1    1    0.000000   -0.000000
  -14   -6    0    2    1    0.000000   -0.000000
  -14   -6    0    3    1   -0.000000    0.000000
  -14   -6    0    4    1   -0.000000    0.000000
  -14   -6    0    5    1   -0.000000   -0.000000
  -14   -6    0    1    2    0.000000    0.000000
  -14   -6    0    2    2    0.000000   -0.000000
  -14   -6    0    3    2   -0.000000    0.000000
  -14   -6    0    4    2   -0.000000    0.000000
  -14   -6    0    5    2   -0.000000   -0.000000
  -14   -6    0    1    3   -0.000000   -0.000000
  -14   -6    0    2    3   -0.000000   -0.000000
  -14   -6    0    3    3   -0.000000    0.000000
  -14   -6    0    4    3    0.000000    0.000000
  -14   -6    0    5    3    0.000000    0.000000
  -14   -6    0    1    4   -0.000000   -0.000000
  -14   -6    0    2    4   -0.000000   -0.000000
  -14   -6    0    3    4    0.000000   -0.000000
  -14   -6    0    4    4   -0.000000    0.000000
  -14   -6    0    5    4    0.000000    0.000000
  -14   -6    0    1    5   -0.000000    0.000000
  -14   -6    0    2    5   -0.000000    0.000000
  -14   -6    0    3    5    0.000000   -0.000000
  -14   -6    0    4    5    0.000000   -0.000000
  -14   -6    0    5    5    0.000000   -0.000000
  -14   -5    0    1    1   -0.000000   -0.000000
  -14   -5    0    2    1   -0.000000    0.000000
  -14   -5    0    3    1    0.000000    0.000000
  -14   -5    0    4    1   -0.000000    0.000000
  -14   -5    0    5    1   -0.000000    0.000000
  -14   -5    0    1    2   -0.000000   -0.000000
  -14   -5    0    2    2   -0.000001    0.000000
  -14   -5    0    3    2   -0.000000   -0.000000
  -14   -5    0    4    2    0.000000   -0.000000
  -14   -5    0    5    2    0.000000   -0.000000
  -14   -5    0    1    3    0.000000    0.000000
  -14   -5    0    2    3   -0.000000   -0.000000
  -14   -5    0    3    3   -0.000000   -0.000000
  -14   -5    0    4    3    0.000000    0.000000
  -14   -5    0    5    3   -0.000000   -0.000000
  -14   -5    0    1    4   -0.000000   -0.000000
  -14   -5    0    2    4    0.000000    0.000000
  -14   -5    0    3    4    0.000000   -0.000000
  -14   -5    0    4    4    0.000000    0.000000
  -14   -5    0    5    4    0.000000   -0.000000
  -14   -5    0    1    5   -0.000000   -0.000000
  -14   -5    0    2    5    0.000000    0.000000
  -14   -5    0    3    5   -0.000000    0.000000
  -14   -5    0    4    5    0.000000    0.000000
  -14   -5    0    5    5   -0.000000   -0.000000
  -14   -4    0    1    1   -0.000000    0.000000
  -14   -4    0    2    1   -0.000000    0.000000
  -14   -4    0    3    1    0.000000    0.000000
  -14   -4    0    4    1   -0.000001    0.000000
  -14   -4    0    5    1   -0.000000    0.000000
  -14   -4    0    1    2   -0.000000   -0.000000
  -14   -4    0    2    2   -0.000001    0.000000
  -14   -4    0    3    2   -0.000000   -0.000000
  -14   -4    0    4    2    0.000000   -0.000000
  -14   -4    0    5    2   -0.000000   -0.000000
  -14   -4    0    1    3    0.000000   -0.000000
  -14   -4    0    2    3   -0.000000    0.000000
  -14   -4    0    3    3    0.000000    0.000000
  -14   -4    0    4    3   -0.000000    0.000000
  -14   -4    0    5    3   -0.000000   -0.000000
  -14   -4    0    1    4   -0.000001   -0.000000
  -14   -4    0    2    4    0.000000    0.000000
  -14   -4    0    3    4   -0.000000   -0.000000
  -14   -4    0    4    4    0.000001    0.000000
  -14   -4    0    5    4   -0.000000    0.000000
  -14   -4    0    1    5   -0.000000   -0.000000
  -14   -4    0    2    5   -0.000000    0.000000
  -14   -4    0    3    5   -0.000000    0.000000
  -14   -4    0    4    5   -0.000000    0.000000
  -14   -4    0    5    5    0.000000   -0.000000
  -13  -11    0    1    1   -0.000000   -0.000000
  -13  -11    0    2    1   -0.000000   -0.000000
  -13  -11    0    3    1    0.000000   -0.000000
  -13  -11    0    4    1   -0.000000   -0.000000
  -13  -11    0    5    1    0.000000   -0.000000
  -13  -11    0    1    2   -0.000000    0.000000
  -13  -11    0    2    2   -0.000000   -0.000000
  -13  -11    0    3    2    0.000001   -0.000000
  -13  -11    0    4    2   -0.000000    0.000000
  -13  -11    0    5    2    0.000000    0.000000
  -13  -11    0    1    3    0.000000    0.000000
  -13  -11    0    2    3    0.000001    0.000000
  -13  -11    0    3    3    0.000001    0.000000
  -13  -11    0    4    3   -0.000000   -0.000000
  -13  -11    0    5    3   -0.000000    0.000000
  -13  -11    0    1    4   -0.000000    0.000000
  -13  -11    0    2    4   -0.000000   -0.000000
  -13  -11    0    3    4   -0.000000    0.000000
  -13  -11    0    4    4   -0.000000    0.000000
  -13  -11    0    5    4   -0.000000   -0.000000
  -13  -11    0    1    5    0.000000    0.000000
  -13  -11    0    2    5    0.000000   -0.000000
  -13  -11    0    3    5   -0.000000    0.000000
  -13  -11    0    4    5   -0.000000   -0.000000
  -13  -11    0    5    5    0.000000   -0.000000
  -13  -10    0    1    1    0.000000    0.000000
  -13  -10    0    2    1   -0.000000    0.000000
  -13  -10    0    3    1    0.000000    0.000000
  -13  -10    0    4    1   -0.000000   -0.000000
  -13  -10    0    5    1    0.000000   -0.000000
  -13  -10    0    1    2   -0.000000    0.000000
  -13  -10    0    2    2    0.000000    0.000000
  -13  -10    0    3    2    0.000000    0.000000
  -13  -10    0    4    2   -0.000000    0.000000
  -13  -10    0    5    2   -0.000000    0.000000
  -13  -10    0    1    3    0.000000    0.000000
  -13  -10    0    2    3    0.000000    0.000000
  -13  -10    0    3    3   -0.000000   -0.000000
  -13  -10    0    4    3    0.000000   -0.000000
  -13  -10    0    5    3    0.000000    0.000000
  -13  -10    0    1    4   -0.000000    0.000000
  -13  -10    0    2    4   -0.000000    0.000000
  -13  -10    0    3    4    0.000000    0.000000
  -13  -10    0    4    4   -0.000000    0.000000
  -13  -10    0    5    4    0.000000   -0.000000
  -13  -10    0    1    5    0.000000    0.000000
  -13  -10    0    2    5   -0.000000   -0.000000
  -13  -10    0    3    5    0.000000   -0.000000
  -13  -10    0    4    5    0.000000   -0.000000
  -13  -10    0    5    5   -0.000000   -0.000000
  -13   -9    0    1    1   -0.000000   -0.000000
  -13   -9    0    2    1   -0.000000    0.000000
  -13   -9    0    3    1   -0.000000    0.000000
  -13   -9    0    4    1   -0.000000    0.000000
  -13   -9    0    5    1   -0.000000    0.000000
  -13   -9    0    1    2   -0.000000   -0.000000
  -13   -9    0    2    2    0.000000   -0.000000
  -13   -9    0    3    2   -0.000000   -0.000000
  -13   -9    0    4    2    0.000000   -0.000000
  -13   -9    0    5    2   -0.000000   -0.000000
  -13   -9    0    1    3   -0.000000   -0.000000
  -13   -9    0    2    3   -0.000000    0.000000
  -13   -9    0    3    3    0.000000    0.000000
  -13   -9    0    4    3   -0.000000    0.000000
  -13   -9    0    5    3    0.000000    0.000000
  -13   -9    0    1    4   -0.000000   -0.000000
  -13   -9    0    2    4    0.000000    0.000000
  -13   -9    0    3    4   -0.000000   -0.000000
  -13   -9    0    4    4    0.000000    0.000000
  -13   -9    0    5    4   -0.000000   -0.000000
  -13   -9    0    1    5   -0.000000   -0.000000
  -13   -9    0    2    5   -0.000000    0.000000
  -13   -9    0    3    5    0.000000    0.000000
  -13   -9    0    4    5   -0.000000    0.000000
  -13   -9    0    5    5    0.000001   -0.000000
  -13   -8    0    1    1    0.000000   -0.000000
  -13   -8    0    2    1   -0.000000    0.000000
  -13   -8    0    3    1   -0.000000    0.000000
  -13   -8    0    4    1    0.000000    0.000000
  -13   -8    0    5    1    0.000000   -0.000000
  -13   -8    0    1    2   -0.000000    0.000000
  -13   -8    0    2    2    0.000000    0.000000
  -13   -8    0    3    2   -0.000000    0.000000
  -13   -8    0    4    2    0.000000    0.000000
  -13   -8    0    5    2    0.000000   -0.000000
  -13   -8    0    1    3   -0.000000   -0.000000
  -13   -8    0    2    3   -0.000000    0.000000
  -13   -8    0    3    3    0.000001   -0.000000
  -13   -8    0    4    3   -0.000000    0.000000
  -13   -8    0    5    3    0.000000    0.000000
  -13   -8    0    1    4    0.000000   -0.000000
  -13   -8    0    2    4    0.000000   -0.000000
  -13   -8    0    3    4   -0.000000   -0.000000
  -13   -8    0    4    4    0.000001    0.000000
  -13   -8    0    5    4   -0.000000   -0.000000
  -13   -8    0    1    5    0.000000    0.000000
  -13   -8    0    2    5    0.000000    0.000000
  -13   -8    0    3    5    0.000000   -0.000000
  -13   -8    0    4    5   -0.000000   -0.000000
  -13   -8    0    5    5   -0.000000   -0.000000
  -13   -7    0    1    1   -0.000000   -0.000000
  -13   -7    0    2    1   -0.000000   -0.000000
  -13   -7    0    3    1    0.000000   -0.000000
  -13   -7    0    4    1    0.000000   -0.000000
  -13   -7    0    5    1   -0.000000   -0.000000
  -13   -7    0    1    2   -0.000000    0.000000
  -13   -7    0    2    2    0.000001   -0.000000
  -13   -7    0    3    2    0.000000    0.000000
  -13   -7    0    4    2    0.000000    0.000000
  -13   -7    0    5    2   -0.000000    0.000000
  -13   -7    0    1    3    0.000000    0.000000
  -13   -7    0    2    3    0.000000   -0.000000
  -13   -7    0    3    3    0.000000    0.000000
  -13   -7    0    4    3   -0.000000   -0.000000
  -13   -7    0    5    3    0.000000   -0.000000
  -13   -7    0    1    4    0.000000    0.000000
  -13   -7    0    2    4    0.000000   -0.000000
  -13   -7    0    3    4   -0.000000    0.000000
  -13   -7    0    4    4   -0.000000    0.000000
  -13   -7    0    5    4    0.000000    0.000000
  -13   -7    0    1    5   -0.000000    0.000000
  -13   -7    0    2    5   -0.000000   -0.000000
  -13   -7    0    3    5    0.000000    0.000000
  -13   -7    0    4    5    0.000000   -0.000000
  -13   -7    0    5    5    0.000000   -0.000000
  -13   -6    0    1    1   -0.000000   -0.000000
  -13   -6    0    2    1   -0.000000    0.000000
  -13   -6    0    3    1   -0.000000    0.000000
  -13   -6    0    4    1   -0.000000    0.000000
  -13   -6    0    5    1    0.000000    0.000000
  -13   -6    0    1    2   -0.000000   -0.000000
  -13   -6    0    2    2    0.000000    0.000000
  -13   -6    0    3    2    0.000000    0.000000
  -13   -6    0    4    2   -0.000000   -0.000000
  -13   -6    0    5    2    0.000000    0.000000
  -13   -6    0    1    3   -0.000000   -0.000000
  -13   -6    0    2    3    0.000000   -0.000000
  -13   -6    0    3    3    0.000000   -0.000000
  -13   -6    0    4    3   -0.000000   -0.000000
  -13   -6    0    5    3   -0.000000   -0.000000
  -13   -6    0    1    4   -0.000000    0.000000
  -13   -6    0    2    4   -0.000000    0.000000
  -13   -6    0    3    4   -0.000000    0.000000
  -13   -6    0    4    4    0.000000    0.000000
  -13   -6    0    5    4    0.000000    0.000000
  -13   -6    0    1    5    0.000000   -0.000000
  -13   -6    0    2    5    0.000000   -0.000000
  -13   -6    0    3    5   -0.000000    0.000000
  -13   -6    0    4    5    0.000000   -0.000000
  -13   -6    0    5    5    0.000000   -0.000000
  -13   -5    0    1    1    0.000000    0.000000
  -13   -5    0    2    1   -0.000000   -0.000000
  -13   -5    0    3    1   -0.000000   -0.000000
  -13   -5    0    4    1    0.000000    0.000000
  -13   -5    0    5    1    0.000000   -0.000000
  -13   -5    0    1    2   -0.000000    0.000000
  -13   -5    0    2    2    0.000001   -0.000000
  -13   -5    0    3    2   -0.000000   -0.000000
  -13   -5    0    4    2    0.000000    0.000000
  -13   -5    0    5    2   -0.000000   -0.000000
  -13   -5    0    1    3   -0.000000   -0.000000
  -13   -5    0    2    3   -0.000000   -0.000000
  -13   -5    0    3    3    0.000001    0.000000
  -13   -5    0    4    3   -0.000000    0.000000
  -13   -5    0    5    3    0.000000    0.000000
  -13   -5    0    1    4    0.000000   -0.000000
  -13   -5    0    2    4    0.000000   -0.000000
  -13   -5    0    3    4   -0.000000   -0.000000
  -13   -5    0    4    4   -0.000000    0.000000
  -13   -5    0    5    4   -0.000001    0.000000
  -13   -5    0    1    5    0.000000    0.000000
  -13   -5    0    2    5   -0.000000    0.000000
  -13   -5    0    3    5    0.000000   -0.000000
  -13   -5    0    4    5   -0.000001    0.000000
  -13   -5    0    5    5    0.000000   -0.000000
  -13   -4    0    1    1   -0.000000    0.000000
  -13   -4    0    2    1   -0.000000   -0.000000
  -13   -4    0    3    1   -0.000000   -0.000000
  -13   -4    0    4    1   -0.000000    0.000000
  -13   -4    0    5    1   -0.000000   -0.000000
  -13   -4    0    1    2   -0.000000    0.000000
  -13   -4    0    2    2    0.000000    0.000000
  -13   -4    0    3    2    0.000000   -0.000000
  -13   -4    0    4    2    0.000000   -0.000000
  -13   -4    0    5    2    0.000000   -0.000000
  -13   -4    0    1    3   -0.000000    0.000000
  -13   -4    0    2    3    0.000000    0.000000
  -13   -4    0    3    3    0.000000   -0.000000
  -13   -4    0    4    3   -0.000000    0.000000
  -13   -4    0    5    3   -0.000000    0.000000
  -13   -4    0    1    4   -0.000000    0.000000
  -13   -4    0    2    4    0.000000   -0.000000
  -13   -4    0    3    4   -0.000000   -0.000000
  -13   -4    0    4    4    0.000001    0.000000
  -13   -4    0    5    4    0.000000   -0.000000
  -13   -4    0    1    5   -0.000000    0.000000
  -13   -4    0    2    5    0.000000    0.000000
  -13   -4    0    3    5   -0.000000   -0.000000
  -13   -4    0    4    5    0.000000    0.000000
  -13   -4    0    5    5    0.000000   -0.000000
  -13   -3    0    1    1    0.000000   -0.000000
  -13   -3    0    2    1    0.000000   -0.000000
  -13   -3    0    3    1   -0.000000   -0.000000
  -13   -3    0    4    1    0.000000    0.000000
  -13   -3    0    5    1    0.000000    0.000000
  -13   -3    0    1    2    0.000000   -0.000000
  -13   -3    0    2    2    0.000000   -0.000000
  -13   -3    0    3    2    0.000000   -0.000000
  -13   -3    0    4    2    0.000000   -0.000000
  -13   -3    0    5    2   -0.000000   -0.000000
  -13   -3    0    1    3   -0.000000   -0.000000
  -13   -3    0    2    3    0.000000   -0.000000
  -13   -3    0    3    3   -0.000000    0.000000
  -13   -3    0    4    3   -0.000000    0.000000
  -13   -3    0    5    3   -0.000000   -0.000000
  -13   -3    0    1    4    0.000000   -0.000000
  -13   -3    0    2    4   -0.000000    0.000000
  -13   -3    0    3    4   -0.000000   -0.000000
  -13   -3    0    4    4   -0.000000    0.000000
  -13   -3    0    5    4   -0.000000    0.000000
  -13   -3    0    1    5    0.000000   -0.000000
  -13   -3    0    2    5   -0.000000    0.000000
  -13   -3    0    3    5   -0.000000    0.000000
  -13   -3    0    4    5   -0.000000    0.000000
  -13   -3    0    5    5   -0.000000   -0.000000
  -13   -2    0    1    1   -0.000000   -0.000000
  -13   -2    0    2    1   -0.000000    0.000000
  -13   -2    0    3    1   -0.000000    0.000000
  -13   -2    0    4    1    0.000000    0.000000
  -13   -2    0    5    1   -0.000000    0.000000
  -13   -2    0    1    2    0.000000    0.000000
  -13   -2    0    2    2    0.000001    0.000000
  -13   -2    0    3    2   -0.000000    0.000000
  -13   -2    0    4    2    0.000000   -0.000000
  -13   -2    0    5    2   -0.000000   -0.000000
  -13   -2    0    1    3   -0.000000   -0.000000
  -13   -2    0    2    3   -0.000000    0.000000
  -13   -2    0    3    3   -0.000000   -0.000000
  -13   -2    0    4    3    0.000000    0.000000
  -13   -2    0    5    3   -0.000000   -0.000000
  -13   -2    0    1    4    0.000000   -0.000000
  -13   -2    0    2    4    0.000000   -0.000000
  -13   -2    0    3    4    0.000000   -0.000000
  -13   -2    0    4    4    0.000001   -0.000000
  -13   -2    0    5    4   -0.000000    0.000000
  -13   -2    0    1    5   -0.000000   -0.000000
  -13   -2    0    2    5   -0.000000    0.000000
  -13   -2    0    3    5   -0.000000    0.000000
  -13   -2    0    4    5   -0.000000    0.000000
  -13   -2    0    5    5   -0.000000   -0.000000
  -12  -12    0    1    1    0.000000    0.000000
  -12  -12    0    2    1   -0.000000   -0.000000
  -12  -12    0    3    1    0.000000   -0.000000
  -12  -12    0    4    1   -0.000000   -0.000000
  -12  -12    0    5    1    0.000001   -0.000000
  -12  -12    0    1    2   -0.000000    0.000000
  -12  -12    0    2    2    0.000000    0.000000
  -12  -12    0    3    2   -0.000000   -0.000000
  -12  -12    0    4    2    0.000000    0.000000
  -12  -12    0    5    2   -0.000000    0.000000
  -12  -12    0    1    3    0.000000    0.000000
  -12  -12    0    2    3   -0.000000    0.000000
  -12  -12    0    3    3   -0.000000    0.000000
  -12  -12    0    4    3    0.000000   -0.000000
  -12  -12    0    5    3    0.000000    0.000000
  -12  -12    0    1    4   -0.000000    0.000000
  -12  -12    0    2    4    0.000000   -0.000000
  -12  -12    0    3    4    0.000000    0.000000
  -12  -12    0    4    4   -0.000001    0.000000
  -12  -12    0    5    4   -0.000000    0.000000
  -12  -12    0    1    5    0.000001    0.000000
  -12  -12    0    2    5   -0.000000   -0.000000
  -12  -12    0    3    5    0.000000   -0.000000
  -12  -12    0    4    5   -0.000000   -0.000000
  -12  -12    0    5    5   -0.000000    0.000000
  -12  -11    0    1    1   -0.000000    0.000000
  -12  -11    0    2    1   -0.000000    0.000000
  -12  -11    0    3    1    0.000000    0.000000
  -12  -11    0    4    1    0.000000    0.000000
  -12  -11    0    5    1   -0.000001    0.000000
  -12  -11    0    1    2   -0.000000    0.000000
  -12  -11    0    2    2    0.000000    0.000000
  -12  -11    0    3    2   -0.000000    0.000000
  -12  -11    0    4    2   -0.000000    0.000000
  -12  -11    0    5    2    0.000000    0.000000
  -12  -11    0    1    3    0.000000    0.000000
  -12  -11    0    2    3   -0.000000    0.000000
  -12  -11    0    3    3    0.000000   -0.000000
  -12  -11    0    4    3   -0.000000   -0.000000
  -12  -11    0    5    3    0.000000   -0.000000
  -12  -11    0    1    4    0.000000    0.000000
  -12  -11    0    2    4   -0.000000    0.000000
  -12  -11    0    3    4   -0.000000    0.000000
  -12  -11    0    4    4    0.000000    0.000000
  -12  -11    0    5    4    0.000000   -0.000000
  -12  -11    0    1    5   -0.000001    0.000000
  -12  -11    0    2    5    0.000000   -0.000000
  -12  -11    0    3    5    0.000000   -0.000000
  -12  -11    0    4    5    0.000000   -0.000000
  -12  -11    0    5    5    0.000000   -0.000000
  -12  -10    0    1    1   -0.000001    0.000000
  -12  -10    0    2    1   -0.000000    0.000000
  -12  -10    0    3    1   -0.000000    0.000000
  -12  -10    0    4    1   -0.000000    0.000000
  -12  -10    0    5    1    0.000001    0.000000
  -12  -10    0    1    2   -0.000000   -0.000000
  -12  -10    0    2    2    0.000000   -0.000000
  -12  -10    0    3    2    0.000001   -0.000000
  -12  -10    0    4    2    0.000000   -0.000000
  -12  -10    0    5    2    0.000000    0.000000
  -12  -10    0    1    3   -0.000000   -0.000000
  -12  -10    0    2    3    0.000001    0.000000
  -12  -10    0    3    3    0.000001    0.000000
  -12  -10    0    4    3   -0.000000   -0.000000
  -12  -10    0    5    3   -0.000000    0.000000
  -12  -10    0    1    4   -0.000000   -0.000000
  -12  -10    0    2    4    0.000000   -0.000000
  -12  -10    0    3    4   -0.000000   -0.000000
  -12  -10    0    4    4   -0.000000    0.000000
  -12  -10    0    5    4   -0.000000   -0.000000
  -12  -10    0    1    5    0.000001   -0.000000
  -12  -10    0    2    5    0.000000    0.000000
  -12  -10    0    3    5   -0.000000    0.000000
  -12  -10    0    4    5   -0.000000   -0.000000
  -12  -10    0    5    5    0.000000   -0.000000
  -12   -9    0    1    1    0.000000    0.000000
  -12   -9    0    2    1   -0.000000    0.000000
  -12   -9    0    3    1   -0.000000    0.000000
  -12   -9    0    4    1   -0.000000    0.000000
  -12   -9    0    5    1    0.000001   -0.000000
  -12   -9    0    1    2   -0.000000    0.000000
  -12   -9    0    2    2    0.000001    0.000000
  -12   -9    0    3    2   -0.000000    0.000000
  -12   -9    0    4    2    0.000000    0.000000
  -12   -9    0    5    2   -0.000000   -0.000000
  -12   -9    0    1    3   -0.000000    0.000000
  -12   -9    0    2    3   -0.000000    0.000000
  -12   -9    0    3    3   -0.000000   -0.000000
  -12   -9    0    4    3   -0.000000    0.000000
  -12   -9    0    5    3   -0.000000   -0.000000
  -12   -9    0    1    4   -0.000000    0.000000
  -12   -9    0    2    4    0.000000    0.000000
  -12   -9    0    3    4   -0.000000   -0.000000
  -12   -9    0    4    4   -0.000000    0.000000
  -12   -9    0    5    4    0.000000   -0.000000
  -12   -9    0    1    5    0.000001    0.000000
  -12   -9    0    2    5   -0.000000    0.000000
  -12   -9    0    3    5   -0.000000   -0.000000
  -12   -9    0    4    5    0.000000   -0.000000
  -12   -9    0    5    5   -0.000001   -0.000000
  -12   -8    0    1    1    0.000000   -0.000000
  -12   -8    0    2    1   -0.000000   -0.000000
  -12   -8    0    3    1    0.000000   -0.000000
  -12   -8    0    4    1    0.000000   -0.000000
  -12   -8    0    5    1    0.000001   -0.000000
  -12   -8    0    1    2   -0.000000    0.000000
  -12   -8    0    2    2   -0.000001   -0.000000
  -12   -8    0    3    2   -0.000000    0.000000
  -12   -8    0    4    2    0.000000   -0.000000
  -12   -8    0    5    2    0.000000    0.000000
  -12   -8    0    1    3    0.000000    0.000000
  -12   -8    0    2    3   -0.000000   -0.000000
  -12   -8    0    3    3    0.000000    0.000000
  -12   -8    0    4    3   -0.000000   -0.000000
  -12   -8    0    5    3    0.000000    0.000000
  -12   -8    0    1    4    0.000000    0.000000
  -12   -8    0    2    4    0.000000   -0.000000
  -12   -8    0    3    4   -0.000000   -0.000000
  -12   -8    0    4    4    0.000000    0.000000
  -12   -8    0    5    4   -0.000001   -0.000000
  -12   -8    0    1    5    0.000001    0.000000
  -12   -8    0    2    5    0.000000    0.000000
  -12   -8    0    3    5    0.000000    0.000000
  -12   -8    0    4    5   -0.000001   -0.000000
  -12   -8    0    5    5   -0.000001   -0.000000
  -12   -7    0    1    1   -0.000000    0.000000
  -12   -7    0    2    1   -0.000000   -0.000000
  -12   -7    0    3    1   -0.000000    0.000000
  -12   -7    0    4    1    0.000000    0.000000
  -12   -7    0    5    1   -0.000000    0.000000
  -12   -7    0    1    2   -0.000000    0.000000
  -12   -7    0    2    2   -0.000000    0.000000
  -12   -7    0    3    2   -0.000001    0.000000
  -12   -7    0    4    2    0.000000    0.000000
  -12   -7    0    5    2    0.000000   -0.000000
  -12   -7    0    1    3   -0.000000   -0.000000
  -12   -7    0    2    3   -0.000001   -0.000000
  -12   -7    0    3    3   -0.000000   -0.000000
  -12   -7    0    4    3   -0.000000    0.000000
  -12   -7    0    5    3    0.000000   -0.000000
  -12   -7    0    1    4    0.000000   -0.000000
  -12   -7    0    2    4    0.000000    0.000000
  -12   -7    0    3    4   -0.000000   -0.000000
  -12   -7    0    4    4    0.000001    0.000000
  -12   -7    0    5    4   -0.000000    0.000000
  -12   -7    0    1    5   -0.000000   -0.000000
  -12   -7    0    2    5    0.000000    0.000000
  -12   -7    0    3    5    0.000000   -0.000000
  -12   -7    0    4    5   -0.000000   -0.000000
  -12   -7    0    5    5    0.000000   -0.000000
  -12   -6    0    1    1   -0.000000    0.000000
  -12   -6    0    2    1   -0.000000    0.000000
  -12   -6    0    3    1   -0.000000   -0.000000
  -12   -6    0    4    1   -0.000000   -0.000000
  -12   -6    0    5    1   -0.000000    0.000000
  -12   -6    0    1    2   -0.000000   -0.000000
  -12   -6    0    2    2   -0.000000   -0.000000
  -12   -6    0    3    2    0.000000    0.000000
  -12   -6    0    4    2    0.000000   -0.000000
  -12   -6    0    5    2   -0.000000    0.000000
  -12   -6    0    1    3   -0.000000    0.000000
  -12   -6    0    2    3    0.000000   -0.000000
  -12   -6    0    3    3   -0.000001    0.000000
  -12   -6    0    4    3   -0.000000   -0.000000
  -12   -6    0    5    3    0.000000   -0.000000
  -12   -6    0    1    4   -0.000000    0.000000
  -12   -6    0    2    4    0.000000   -0.000000
  -12   -6    0    3    4   -0.000000    0.000000
  -12   -6    0    4    4   -0.000001    0.000000
  -12   -6    0    5    4    0.000001    0.000000
  -12   -6    0    1    5   -0.000000   -0.000000
  -12   -6    0    2    5   -0.000000   -0.000000
  -12   -6    0    3    5    0.000000    0.000000
  -12   -6    0    4    5    0.000001    0.000000
  -12   -6    0    5    5   -0.000000   -0.000000
  -12   -5    0    1    1   -0.000000   -0.000000
  -12   -5    0    2    1   -0.000000   -0.000000
  -12   -5    0    3    1   -0.000000    0.000000
  -12   -5    0    4    1   -0.000000    0.000000
  -12   -5    0    5    1    0.000000   -0.000000
  -12   -5    0    1    2   -0.000000    0.000000
  -12   -5    0    2    2   -0.000001    0.000000
  -12   -5    0    3    2   -0.000000   -0.000000
  -12   -5    0    4    2    0.000000    0.000000
  -12   -5    0    5    2    0.000000   -0.000000
  -12   -5    0    1    3   -0.000000   -0.000000
  -12   -5    0    2    3   -0.000000   -0.000000
  -12   -5    0    3    3    0.000000   -0.000000
  -12   -5    0    4    3   -0.000000    0.000000
  -12   -5    0    5    3    0.000000   -0.000000
  -12   -5    0    1    4   -0.000000   -0.000000
  -12   -5    0    2    4    0.000000   -0.000000
  -12   -5    0    3    4   -0.000000   -0.000000
  -12   -5    0    4    4    0.000001    0.000000
  -12   -5    0    5    4   -0.000001    0.000000
  -12   -5    0    1    5    0.000000    0.000000
  -12   -5    0    2    5    0.000000    0.000000
  -12   -5    0    3    5    0.000000   -0.000000
  -12   -5    0    4    5   -0.000001   -0.000000
  -12   -5    0    5    5    0.000000   -0.000000
  -12   -4    0    1    1    0.000000   -0.000000
  -12   -4    0    2    1   -0.000000    0.000000
  -12   -4    0    3    1   -0.000000   -0.000000
  -12   -4    0    4    1    0.000001    0.000000
  -12   -4    0    5    1    0.000001    0.000000
  -12   -4    0    1    2   -0.000000   -0.000000
  -12   -4    0    2    2   -0.000000   -0.000000
  -12   -4    0    3    2   -0.000001    0.000000
  -12   -4    0    4    2    0.000000   -0.000000
  -12   -4    0    5    2    0.000000   -0.000000
  -12   -4    0    1    3   -0.000000    0.000000
  -12   -4    0    2    3   -0.000001   -0.000000
  -12   -4    0    3    3   -0.000000    0.000000
  -12   -4    0    4    3    0.000000    0.000000
  -12   -4    0    5    3    0.000000    0.000000
  -12   -4    0    1    4    0.000001   -0.000000
  -12   -4    0    2    4    0.000000   -0.000000
  -12   -4    0    3    4    0.000000   -0.000000
  -12   -4    0    4    4   -0.000000    0.000000
  -12   -4    0    5    4   -0.000001    0.000000
  -12   -4    0    1    5    0.000001   -0.000000
  -12   -4    0    2    5    0.000000    0.000000
  -12   -4    0    3    5    0.000000    0.000000
  -12   -4    0    4    5   -0.000001    0.000000
  -12   -4    0    5    5   -0.000000   -0.000000
  -12   -3    0    1    1    0.000000    0.000000
  -12   -3    0    2    1   -0.000000   -0.000000
  -12   -3    0    3    1   -0.000000    0.000000
  -12   -3    0    4    1    0.000001    0.000000
  -12   -3    0    5    1    0.000000   -0.000000
  -12   -3    0    1    2   -0.000000   -0.000000
  -12   -3    0    2    2    0.000000    0.000000
  -12   -3    0    3    2    0.000000   -0.000000
  -12   -3    0    4    2   -0.000000    0.000000
  -12   -3    0    5    2   -0.000000   -0.000000
  -12   -3    0    1    3   -0.000000    0.000000
  -12   -3    0    2    3    0.000000   -0.000000
  -12   -3    0    3    3    0.000000   -0.000000
  -12   -3    0    4    3   -0.000000    0.000000
  -12   -3    0    5    3    0.000000    0.000000
  -12   -3    0    1    4    0.000001   -0.000000
  -12   -3    0    2    4   -0.000000   -0.000000
  -12   -3    0    3    4   -0.000000   -0.000000
  -12   -3    0    4    4   -0.000001    0.000000
  -12   -3    0    5    4   -0.000000    0.000000
  -12   -3    0    1    5    0.000000    0.000000
  -12   -3    0    2    5   -0.000000    0.000000
  -12   -3    0    3    5    0.000000   -0.000000
  -12   -3    0    4    5   -0.000000    0.000000
  -12   -3    0    5    5   -0.000000   -0.000000
  -12   -2    0    1    1   -0.000001   -0.000000
  -12   -2    0    2    1   -0.000000   -0.000000
  -12   -2    0    3    1   -0.000000   -0.000000
  -12   -2    0    4    1    0.000001    0.000000
  -12   -2    0    5    1   -0.000000   -0.000000
  -12   -2    0    1    2   -0.000000    0.000000
  -12   -2    0    2    2    0.000002   -0.000000
  -12   -2    0    3    2   -0.000000    0.000000
  -12   -2    0    4    2    0.000000   -0.000000
  -12   -2    0    5    2   -0.000000    0.000000
  -12   -2    0    1    3   -0.000000    0.000000
  -12   -2    0    2    3   -0.000000    0.000000
  -12   -2    0    3    3   -0.000000    0.000000
  -12   -2    0    4    3    0.000000   -0.000000
  -12   -2    0    5    3    0.000000    0.000000
  -12   -2    0    1    4    0.000001   -0.000000
  -12   -2    0    2    4    0.000000   -0.000000
  -12   -2    0    3    4    0.000000   -0.000000
  -12   -2    0    4    4    0.000001    0.000000
  -12   -2    0    5    4    0.000000    0.000000
  -12   -2    0    1    5   -0.000000    0.000000
  -12   -2    0    2    5   -0.000000    0.000000
  -12   -2    0    3    5    0.000000   -0.000000
  -12   -2    0    4    5    0.000000    0.000000
  -12   -2    0    5    5   -0.000001   -0.000000
  -12   -1    0    1    1   -0.000000   -0.000000
  -12   -1    0    2    1   -0.000000   -0.000000
  -12   -1    0    3    1   -0.000000    0.000000
  -12   -1    0    4    1   -0.000001    0.000000
  -12   -1    0    5    1   -0.000000   -0.000000
  -12   -1    0    1    2   -0.000000   -0.000000
  -12   -1    0    2    2    0.000000    0.000000
  -12   -1    0    3    2   -0.000000   -0.000000
  -12   -1    0    4    2    0.000000    0.000000
  -12   -1    0    5    2   -0.000000   -0.000000
  -12   -1    0    1    3   -0.000000    0.000000
  -12   -1    0    2    3   -0.000000   -0.000000
  -12   -1    0    3    3    0.000000   -0.000000
  -12   -1    0    4    3    0.000000    0.000000
  -12   -1    0    5    3    0.000000   -0.000000
  -12   -1    0    1    4   -0.000001   -0.000000
  -12   -1    0    2    4    0.000000    0.000000
  -12   -1    0    3    4    0.000000   -0.000000
  -12   -1    0    4    4    0.000000    0.000000
  -12   -1    0    5    4   -0.000000    0.000000
  -12   -1    0    1    5   -0.000000   -0.000000
  -12   -1    0    2    5   -0.000000    0.000000
  -12   -1    0    3    5    0.000000   -0.000000
  -12   -1    0    4    5   -0.000000    0.000000
  -12   -1    0    5    5    0.000000   -0.000000
  -12    0    0    1    1    0.000000    0.000000
  -12    0    0    2    1   -0.000000    0.000000
  -12    0    0    3    1   -0.000000    0.000000
  -12    0    0    4    1    0.000001    0.000000
  -12    0    0    5    1   -0.000000    0.000000
  -12    0    0    1    2   -0.000000   -0.000000
  -12    0    0    2    2   -0.000000    0.000000
  -12    0    0    3    2   -0.000000   -0.000000
  -12    0    0    4    2    0.000000   -0.000000
  -12    0    0    5    2    0.000000   -0.000000
  -12    0    0    1    3   -0.000000   -0.000000
  -12    0    0    2    3   -0.000000    0.000000
  -12    0    0    3    3    0.000000    0.000000
  -12    0    0    4    3   -0.000000    0.000000
  -12    0    0    5    3   -0.000000   -0.000000
  -12    0    0    1    4    0.000001   -0.000000
  -12    0    0    2    4    0.000000    0.000000
  -12    0    0    3    4   -0.000000   -0.000000
  -12    0    0    4    4   -0.000000    0.000000
  -12    0    0    5    4   -0.000000    0.000000
  -12    0    0    1    5   -0.000000   -0.000000
  -12    0    0    2    5    0.000000    0.000000
  -12    0    0    3    5   -0.000000    0.000000
  -12    0    0    4    5   -0.000000   -0.000000
  -12    0    0    5    5   -0.000001    0.000000
  -11  -13    0    1    1   -0.000000    0.000000
  -11  -13    0    2    1   -0.000000   -0.000000
  -11  -13    0    3    1    0.000000   -0.000000
  -11  -13    0    4    1   -0.000000   -0.000000
  -11  -13    0    5    1    0.000000   -0.000000
  -11  -13    0    1    2   -0.000000    0.000000
  -11  -13    0    2    2   -0.000000    0.000000
  -11  -13    0    3    2    0.000001   -0.000000
  -11  -13    0    4    2   -0.000000    0.000000
  -11  -13    0    5    2    0.000000    0.000000
  -11  -13    0    1    3    0.000000    0.000000
  -11  -13    0    2    3    0.000001    0.000000
  -11  -13    0    3    3    0.000001   -0.000000
  -11  -13    0    4    3   -0.000000   -0.000000
  -11  -13    0    5    3   -0.000000   -0.000000
  -11  -13    0    1    4   -0.000000    0.000000
  -11  -13    0    2    4   -0.000000   -0.000000
  -11  -13    0    3    4   -0.000000    0.000000
  -11  -13    0    4    4   -0.000000   -0.000000
  -11  -13    0    5    4   -0.000000    0.000000
  -11  -13    0    1    5    0.000000    0.000000
  -11  -13    0    2    5    0.000000   -0.000000
  -11  -13    0    3    5   -0.000000   -0.000000
  -11  -13    0    4    5   -0.000000    0.000000
  -11  -13    0    5    5    0.000000    0.000000
  -11  -12    0    1    1   -0.000000    0.000000
  -11  -12    0    2    1   -0.000000   -0.000000
  -11  -12    0    3    1    0.000000   -0.000000
  -11  -12    0    4    1    0.000000   -0.000000
  -11  -12    0    5    1   -0.000001   -0.000000
  -11  -12    0    1    2   -0.000000   -0.000000
  -11  -12    0    2    2    0.000000   -0.000000
  -11  -12    0    3    2   -0.000000   -0.000000
  -11  -12    0    4    2   -0.000000   -0.000000
  -11  -12    0    5    2   -0.000000    0.000000
  -11  -12    0    1    3    0.000000   -0.000000
  -11  -12    0    2    3   -0.000000   -0.000000
  -11  -12    0    3    3   -0.000000    0.000000
  -11  -12    0    4    3   -0.000000   -0.000000
  -11  -12    0    5    3   -0.000000    0.000000
  -11  -12    0    1    4    0.000000   -0.000000
  -11  -12    0    2    4   -0.000000   -0.000000
  -11  -12    0    3    4   -0.000000    0.000000
  -11  -12    0    4    4    0.000000   -0.000000
  -11  -12    0    5    4    0.000000    0.000000
  -11  -12    0    1    5   -0.000001   -0.000000
  -11  -12    0    2    5   -0.000000   -0.000000
  -11  -12    0    3    5   -0.000000    0.000000
  -11  -12    0    4    5    0.000000    0.000000
  -11  -12    0    5    5    0.000000    0.000000
  -11  -11    0    1    1   -0.000000   -0.000000
  -11  -11    0    2    1   -0.000000    0.000000
  -11  -11    0    3    1    0.000000    0.000000
  -11  -11    0    4    1   -0.000000    0.000000
  -11  -11    0    5    1    0.000001    0.000000
  -11  -11    0    1    2   -0.000000   -0.000000
  -11  -11    0    2    2   -0.000000    0.000000
  -11  -11    0    3    2    0.000001   -0.000000
  -11  -11    0    4    2    0.000000   -0.000000
  -11  -11    0    5    2    0.000000   -0.000000
  -11  -11    0    1    3    0.000000   -0.000000
  -11  -11    0    2    3    0.000001    0.000000
  -11  -11    0    3    3    0.000001   -0.000000
  -11  -11    0    4    3    0.000000    0.000000
  -11  -11    0    5    3    0.000000   -0.000000
  -11  -11    0    1    4   -0.000000   -0.000000
  -11  -11    0    2    4    0.000000    0.000000
  -11  -11    0    3    4    0.000000   -0.000000
  -11  -11    0    4    4   -0.000000    0.000000
  -11  -11    0    5    4   -0.000000   -0.000000
  -11  -11    0    1    5    0.000001   -0.000000
  -11  -11    0    2    5    0.000000    0.000000
  -11  -11    0    3    5    0.000000    0.000000
  -11  -11    0    4    5   -0.000000    0.000000
  -11  -11    0    5    5    0.000000   -0.000000
  -11  -10    0    1    1   -0.000000   -0.000000
  -11  -10    0    2    1   -0.000000    0.000000
  -11  -10    0    3    1    0.000000    0.000000
  -11  -10    0    4    1   -0.000000    0.000000
  -11  -10    0    5    1    0.000000    0.000000
  -11  -10    0    1    2   -0.000000    0.000000
  -11  -10    0    2    2   -0.000000    0.000000
  -11  -10    0    3    2    0.000000    0.000000
  -11  -10    0    4    2   -0.000000    0.000000
  -11  -10    0    5    2    0.000000   -0.000000
  -11  -10    0    1    3    0.000000    0.000000
  -11  -10    0    2    3    0.000000    0.000000
  -11  -10    0    3    3    0.000000   -0.000000
  -11  -10    0    4    3   -0.000000    0.000000
  -11  -10    0    5    3   -0.000000   -0.000000
  -11  -10    0    1    4   -0.000000    0.000000
  -11  -10    0    2    4   -0.000000    0.000000
  -11  -10    0    3    4   -0.000000   -0.000000
  -11  -10    0    4    4   -0.000000    0.000000
  -11  -10    0    5    4   -0.000000   -0.000000
  -11  -10    0    1    5    0.000000    0.000000
  -11  -10    0    2    5    0.000000    0.000000
  -11  -10    0    3    5   -0.000000   -0.000000
  -11  -10    0    4    5   -0.000000   -0.000000
  -11  -10    0    5    5    0.000001   -0.000000
  -11   -9    0    1    1    0.000000   -0.000000
  -11   -9    0    2    1   -0.000000   -0.000000
  -11   -9    0    3    1   -0.000000   -0.000000
  -11   -9    0    4    1   -0.000001    0.000000
  -11   -9    0    5    1    0.000000   -0.000000
  -11   -9    0    1    2   -0.000000   -0.000000
  -11   -9    0    2    2    0.000000   -0.000000
  -11   -9    0    3    2    0.000000   -0.000000
  -11   -9    0    4    2    0.000000   -0.000000
  -11   -9    0    5    2    0.000000    0.000000
  -11   -9    0    1    3   -0.000000    0.000000
  -11   -9    0    2    3    0.000000   -0.000000
  -11   -9    0    3    3    0.000001    0.000000
  -11   -9    0    4    3   -0.000000   -0.000000
  -11   -9    0    5    3   -0.000000    0.000000
  -11   -9    0    1    4   -0.000001    0.000000
  -11   -9    0    2    4    0.000000   -0.000000
  -11   -9    0    3    4   -0.000000   -0.000000
  -11   -9    0    4    4   -0.000000    0.000000
  -11   -9    0    5    4    0.000000   -0.000000
  -11   -9    0    1    5    0.000000    0.000000
  -11   -9    0    2    5    0.000000    0.000000
  -11   -9    0    3    5    0.000000    0.000000
  -11   -9    0    4    5    0.000000   -0.000000
  -11   -9    0    5    5    0.000000   -0.000000
  -11   -8    0    1    1    0.000000    0.000000
  -11   -8    0    2    1   -0.000000    0.000000
  -11   -8    0    3    1    0.000000    0.000000
  -11   -8    0    4    1   -0.000000    0.000000
  -11   -8    0    5    1    0.000000    0.000000
  -11   -8    0    1    2   -0.000000    0.000000
  -11   -8    0    2    2    0.000000    0.000000
  -11   -8    0    3    2   -0.000000    0.000000
  -11   -8    0    4    2    0.000000    0.000000
  -11   -8    0    5    2    0.000000   -0.000000
  -11   -8    0    1    3    0.000000    0.000000
  -11   -8    0    2    3   -0.000000    0.000000
  -11   -8    0    3    3    0.000001   -0.000000
  -11   -8    0    4    3   -0.000000    0.000000
  -11   -8    0    5    3    0.000000   -0.000000
  -11   -8    0    1    4   -0.000000    0.000000
  -11   -8    0    2    4    0.000000    0.000000
  -11   -8    0    3    4   -0.000000   -0.000000
  -11   -8    0    4    4    0.000000    0.000000
  -11   -8    0    5    4   -0.000000   -0.000000
  -11   -8    0    1    5    0.000000    0.000000
  -11   -8    0    2    5    0.000000    0.000000
  -11   -8    0    3    5    0.000000   -0.000000
  -11   -8    0    4    5   -0.000000   -0.000000
  -11   -8    0    5    5    0.000000   -0.000000
  -11   -7    0    1    1    0.000000    0.000000
  -11   -7    0    2    1   -0.000000   -0.000000
  -11   -7    0    3    1   -0.000000   -0.000000
  -11   -7    0    4    1   -0.000000    0.000000
  -11   -7    0    5    1    0.000000   -0.000000
  -11   -7    0    1    2   -0.000000    0.000000
  -11   -7    0    2    2    0.000001    0.000000
  -11   -7    0    3    2    0.000001   -0.000000
  -11   -7    0    4    2    0.000000    0.000000
  -11   -7    0    5    2   -0.000000   -0.000000
  -11   -7    0    1    3   -0.000000   -0.000000
  -11   -7    0    2    3    0.000001   -0.000000
  -11   -7    0    3    3    0.000001   -0.000000
  -11   -7    0    4    3   -0.000000    0.000000
  -11   -7    0    5    3    0.000000    0.000000
  -11   -7    0    1    4   -0.000000   -0.000000
  -11   -7    0    2    4    0.000000   -0.000000
  -11   -7    0    3    4   -0.000000   -0.000000
  -11   -7    0    4    4    0.000000    0.000000
  -11   -7    0    5    4    0.000000    0.000000
  -11   -7    0    1    5    0.000000    0.000000
  -11   -7    0    2    5   -0.000000    0.000000
  -11   -7    0    3    5    0.000000    0.000000
  -11   -7    0    4    5    0.000000    0.000000
  -11   -7    0    5    5    0.000002   -0.000000
  -11   -6    0    1    1   -0.000001    0.000000
  -11   -6    0    2    1   -0.000000    0.000000
  -11   -6    0    3    1   -0.000000    0.000000
  -11   -6    0    4    1   -0.000000   -0.000000
  -11   -6    0    5    1   -0.000001    0.000000
  -11   -6    0    1    2   -0.000000    0.000000
  -11   -6    0    2    2   -0.000001    0.000000
  -11   -6    0    3    2   -0.000000    0.000000
  -11   -6    0    4    2    0.000000   -0.000000
  -11   -6    0    5    2    0.000000    0.000000
  -11   -6    0    1    3   -0.000000    0.000000
  -11   -6    0    2    3   -0.000000    0.000000
  -11   -6    0    3    3    0.000000   -0.000000
  -11   -6    0    4    3   -0.000000   -0.000000
  -11   -6    0    5    3    0.000000   -0.000000
  -11   -6    0    1    4   -0.000000    0.000000
  -11   -6    0    2    4    0.000000   -0.000000
  -11   -6    0    3    4   -0.000000    0.000000
  -11   -6    0    4    4   -0.000001    0.000000
  -11   -6    0    5    4    0.000000    0.000000
  -11   -6    0    1    5   -0.000001   -0.000000
  -11   -6    0    2    5    0.000000   -0.000000
  -11   -6    0    3    5    0.000000    0.000000
  -11   -6    0    4    5    0.000000   -0.000000
  -11   -6    0    5    5    0.000000   -0.000000
  -11   -5    0    1    1   -0.000001    0.000000
  -11   -5    0    2    1   -0.000000   -0.000000
  -11   -5    0    3    1   -0.000000    0.000000
  -11   -5    0    4    1   -0.000000   -0.000000
  -11   -5    0    5    1   -0.000000    0.000000
  -11   -5    0    1    2   -0.000000   -0.000000
  -11   -5    0    2    2   -0.000000    0.000000
  -11   -5    0    3    2   -0.000001   -0.000000
  -11   -5    0    4    2    0.000000   -0.000000
  -11   -5    0    5    2    0.000000    0.000000
  -11   -5    0    1    3   -0.000000   -0.000000
  -11   -5    0    2    3   -0.000001   -0.000000
  -11   -5    0    3    3   -0.000000   -0.000000
  -11   -5    0    4    3   -0.000000   -0.000000
  -11   -5    0    5    3    0.000000   -0.000000
  -11   -5    0    1    4   -0.000000    0.000000
  -11   -5    0    2    4    0.000000    0.000000
  -11   -5    0    3    4   -0.000000    0.000000
  -11   -5    0    4    4   -0.000000    0.000000
  -11   -5    0    5    4    0.000001    0.000000
  -11   -5    0    1    5   -0.000000   -0.000000
  -11   -5    0    2    5    0.000000   -0.000000
  -11   -5    0    3    5    0.000000    0.000000
  -11   -5    0    4    5    0.000001    0.000000
  -11   -5    0    5    5    0.000000   -0.000000
  -11   -4    0    1    1    0.000000    0.000000
  -11   -4    0    2    1   -0.000000   -0.000000
  -11   -4    0    3    1   -0.000000    0.000000
  -11   -4    0    4    1    0.000000    0.000000
  -11   -4    0    5    1   -0.000000   -0.000000
  -11   -4    0    1    2   -0.000000    0.000000
  -11   -4    0    2    2    0.000001    0.000000
  -11   -4    0    3    2    0.000000    0.000000
  -11   -4    0    4    2    0.000000   -0.000000
  -11   -4    0    5    2   -0.000000   -0.000000
  -11   -4    0    1    3   -0.000000    0.000000
  -11   -4    0    2    3    0.000000    0.000000
  -11   -4    0    3    3    0.000000   -0.000000
  -11   -4    0    4    3   -0.000000    0.000000
  -11   -4    0    5    3    0.000000    0.000000
  -11   -4    0    1    4    0.000000    0.000000
  -11   -4    0    2    4    0.000000   -0.000000
  -11   -4    0    3    4   -0.000000   -0.000000
  -11   -4    0    4    4    0.000001    0.000000
  -11   -4    0    5    4    0.000001    0.000000
  -11   -4    0    1    5   -0.000000    0.000000
  -11   -4    0    2    5   -0.000000    0.000000
  -11   -4    0    3    5    0.000000   -0.000000
  -11   -4    0    4    5    0.000001    0.000000
  -11   -4    0    5    5    0.000001   -0.000000
  -11   -3    0    1    1    0.000000   -0.000000
  -11   -3    0    2    1   -0.000000   -0.000000
  -11   -3    0    3    1   -0.000000   -0.000000
  -11   -3    0    4    1    0.000000    0.000000
  -11   -3    0    5    1   -0.000000   -0.000000
  -11   -3    0    1    2   -0.000000   -0.000000
  -11   -3    0    2    2    0.000000    0.000000
  -11   -3    0    3    2   -0.000001   -0.000000
  -11   -3    0    4    2    0.000000    0.000000
  -11   -3    0    5    2    0.000000    0.000000
  -11   -3    0    1    3   -0.000000    0.000000
  -11   -3    0    2    3   -0.000001   -0.000000
  -11   -3    0    3    3    0.000001   -0.000000
  -11   -3    0    4    3    0.000000   -0.000000
  -11   -3    0    5    3    0.000000   -0.000000
  -11   -3    0    1    4    0.000000    0.000000
  -11   -3    0    2    4    0.000000    0.000000
  -11   -3    0    3    4    0.000000   -0.000000
  -11   -3    0    4    4    0.000000    0.000000
  -11   -3    0    5    4   -0.000000    0.000000
  -11   -3    0    1    5   -0.000000   -0.000000
  -11   -3    0    2    5    0.000000    0.000000
  -11   -3    0    3    5    0.000000   -0.000000
  -11   -3    0    4    5   -0.000000    0.000000
  -11   -3    0    5    5    0.000000   -0.000000
  -11   -2    0    1    1    0.000000   -0.000000
  -11   -2    0    2    1   -0.000000    0.000000
  -11   -2    0    3    1   -0.000000    0.000000
  -11   -2    0    4    1    0.000000    0.000000
  -11   -2    0    5    1   -0.000000    0.000000
  -11   -2    0    1    2   -0.000000   -0.000000
  -11   -2    0    2    2    0.000001    0.000000
  -11   -2    0    3    2    0.000000    0.000000
  -11   -2    0    4    2    0.000000   -0.000000
  -11   -2    0    5    2   -0.000000   -0.000000
  -11   -2    0    1    3   -0.000000    0.000000
  -11   -2    0    2    3    0.000000    0.000000
  -11   -2    0    3    3    0.000000   -0.000000
  -11   -2    0    4    3    0.000000    0.000000
  -11   -2    0    5    3    0.000000   -0.000000
  -11   -2    0    1    4    0.000000    0.000000
  -11   -2    0    2    4    0.000000   -0.000000
  -11   -2    0    3    4    0.000000   -0.000000
  -11   -2    0    4    4   -0.000000    0.000000
  -11   -2    0    5    4    0.000000    0.000000
  -11   -2    0    1    5   -0.000000   -0.000000
  -11   -2    0    2    5   -0.000000    0.000000
  -11   -2    0    3    5    0.000000    0.000000
  -11   -2    0    4    5    0.000000    0.000000
  -11   -2    0    5    5    0.000000   -0.000000
  -11   -1    0    1    1   -0.000000   -0.000000
  -11   -1    0    2    1   -0.000000   -0.000000
  -11   -1    0    3    1   -0.000000    0.000000
  -11   -1    0    4    1    0.000000    0.000000
  -11   -1    0    5    1    0.000000   -0.000000
  -11   -1    0    1    2   -0.000000   -0.000000
  -11   -1    0    2    2    0.000000    0.000000
  -11   -1    0    3    2    0.000000   -0.000000
  -11   -1    0    4    2    0.000000    0.000000
  -11   -1    0    5    2   -0.000000   -0.000000
  -11   -1    0    1    3   -0.000000   -0.000000
  -11   -1    0    2    3    0.000000   -0.000000
  -11   -1    0    3    3   -0.000001   -0.000000
  -11   -1    0    4    3    0.000000    0.000000
  -11   -1    0    5    3    0.000000   -0.000000
  -11   -1    0    1    4    0.000000   -0.000000
  -11   -1    0    2    4    0.000000    0.000000
  -11   -1    0    3    4    0.000000   -0.000000
  -11   -1    0    4    4    0.000001    0.000000
  -11   -1    0    5    4    0.000000    0.000000
  -11   -1    0    1    5    0.000000   -0.000000
  -11   -1    0    2    5   -0.000000    0.000000
  -11   -1    0    3    5    0.000000   -0.000000
  -11   -1    0    4    5    0.000000    0.000000
  -11   -1    0    5    5    0.000000   -0.000000
  -11    0    0    1    1   -0.000000    0.000000
  -11    0    0    2    1   -0.000000   -0.000000
  -11    0    0    3    1   -0.000000    0.000000
  -11    0    0    4    1    0.000001    0.000000
  -11    0    0    5    1    0.000000   -0.000000
  -11    0    0    1    2   -0.000000    0.000000
  -11    0    0    2    2    0.000001    0.000000
  -11    0    0    3    2   -0.000000   -0.000000
  -11    0    0    4    2    0.000000    0.000000
  -11    0    0    5    2    0.000000   -0.000000
  -11    0    0    1    3   -0.000000    0.000000
  -11    0    0    2    3   -0.000000    0.000000
  -11    0    0    3    3   -0.000000   -0.000000
  -11    0    0    4    3    0.000000    0.000000
  -11    0    0    5    3   -0.000000    0.000000
  -11    0    0    1    4    0.000001   -0.000000
  -11    0    0    2    4    0.000000   -0.000000
  -11    0    0    3    4    0.000000   -0.000000
  -11    0    0    4    4    0.000000    0.000000
  -11    0    0    5    4   -0.000000   -0.000000
  -11    0    0    1    5    0.000000    0.000000
  -11    0    0    2    5    0.000000    0.000000
  -11    0    0    3    5   -0.000000   -0.000000
  -11    0    0    4    5   -0.000000    0.000000
  -11    0    0    5    5   -0.000001   -0.000000
  -11    1    0    1    1   -0.000000   -0.000000
  -11    1    0    2    1    0.000000    0.000000
  -11    1    0    3    1   -0.000000   -0.000000
  -11    1    0    4    1   -0.000001    0.000000
  -11    1    0    5    1    0.000000    0.000000
  -11    1    0    1    2    0.000000    0.000000
  -11    1    0    2    2    0.000000    0.000000
  -11    1    0    3    2    0.000000    0.000000
  -11    1    0    4    2   -0.000000   -0.000000
  -11    1    0    5    2   -0.000000    0.000000
  -11    1    0    1    3   -0.000000    0.000000
  -11    1    0    2    3    0.000000    0.000000
  -11    1    0    3    3    0.000000   -0.000000
  -11    1    0    4    3    0.000000   -0.000000
  -11    1    0    5    3   -0.000000    0.000000
  -11    1    0    1    4   -0.000001    0.000000
  -11    1    0    2    4   -0.000000   -0.000000
  -11    1    0    3    4    0.000000    0.000000
  -11    1    0    4    4    0.000000    0.000000
  -11    1    0    5    4    0.000000   -0.000000
  -11    1    0    1    5    0.000000    0.000000
  -11    1    0    2    5   -0.000000   -0.000000
  -11    1    0    3    5   -0.000000    0.000000
  -11    1    0    4    5    0.000000   -0.000000
  -11    1    0    5    5    0.000000   -0.000000
  -11    2    0    1    1   -0.000000    0.000000
  -11    2    0    2    1   -0.000000   -0.000000
  -11    2    0    3    1   -0.000000    0.000000
  -11    2    0    4    1    0.000000    0.000000
  -11    2    0    5    1   -0.000000    0.000000
  -11    2    0    1    2   -0.000000   -0.000000
  -11    2    0    2    2    0.000001   -0.000000
  -11    2    0    3    2   -0.000000   -0.000000
  -11    2    0    4    2    0.000000    0.000000
  -11    2    0    5    2   -0.000000   -0.000000
  -11    2    0    1    3   -0.000000   -0.000000
  -11    2    0    2    3   -0.000000   -0.000000
  -11    2    0    3    3   -0.000000    0.000000
  -11    2    0    4    3    0.000000    0.000000
  -11    2    0    5    3   -0.000000   -0.000000
  -11    2    0    1    4    0.000000   -0.000000
  -11    2    0    2    4    0.000000    0.000000
  -11    2    0    3    4    0.000000   -0.000000
  -11    2    0    4    4    0.000001    0.000000
  -11    2    0    5    4   -0.000000   -0.000000
  -11    2    0    1    5   -0.000000   -0.000000
  -11    2    0    2    5   -0.000000    0.000000
  -11    2    0    3    5   -0.000000    0.000000
  -11    2    0    4    5    0.000000   -0.000000
  -11    2    0    5    5   -0.000000    0.000000
  -10  -14    0    1    1   -0.000000   -0.000000
  -10  -14    0    2    1    0.000000   -0.000000
  -10  -14    0    3    1   -0.000000   -0.000000
  -10  -14    0    4    1    0.000000   -0.000000
  -10  -14    0    5    1   -0.000001   -0.000000
  -10  -14    0    1    2    0.000000    0.000000
  -10  -14    0    2    2   -0.000000    0.000000
  -10  -14    0    3    2   -0.000000   -0.000000
  -10  -14    0    4    2    0.000000    0.000000
  -10  -14    0    5    2   -0.000000    0.000000
  -10  -14    0    1    3   -0.000000    0.000000
  -10  -14    0    2    3   -0.000000    0.000000
  -10  -14    0    3    3   -0.000001   -0.000000
  -10  -14    0    4    3   -0.000000   -0.000000
  -10  -14    0    5    3    0.000000    0.000000
  -10  -14    0    1    4    0.000000    0.000000
  -10  -14    0    2    4    0.000000   -0.000000
  -10  -14    0    3    4   -0.000000    0.000000
  -10  -14    0    4    4    0.000001   -0.000000
  -10  -14    0    5    4   -0.000000    0.000000
  -10  -14    0    1    5   -0.000001    0.000000
  -10  -14    0    2    5   -0.000000   -0.000000
  -10  -14    0    3    5    0.000000   -0.000000
  -10  -14    0    4    5   -0.000000    0.000000
  -10  -14    0    5    5    0.000001    0.000000
  -10  -13    0    1    1    0.000000   -0.000000
  -10  -13    0    2    1   -0.000000   -0.000000
  -10  -13    0    3    1    0.000000   -0.000000
  -10  -13    0    4    1   -0.000000   -0.000000
  -10  -13    0    5    1    0.000000   -0.000000
  -10  -13    0    1    2   -0.000000   -0.000000
  -10  -13    0    2    2   -0.000000   -0.000000
  -10  -13    0    3    2    0.000000   -0.000000
  -10  -13    0    4    2    0.000000   -0.000000
  -10  -13    0    5    2    0.000000    0.000000
  -10  -13    0    1    3    0.000000   -0.000000
  -10  -13    0    2    3    0.000000   -0.000000
  -10  -13    0    3    3    0.000000    0.000000
  -10  -13    0    4    3   -0.000000   -0.000000
  -10  -13    0    5    3   -0.000000    0.000000
  -10  -13    0    1    4   -0.000000    0.000000
  -10  -13    0    2    4    0.000000   -0.000000
  -10  -13    0    3    4   -0.000000    0.000000
  -10  -13    0    4    4   -0.000000   -0.000000
  -10  -13    0    5    4    0.000000    0.000000
  -10  -13    0    1    5    0.000000   -0.000000
  -10  -13    0    2    5   -0.000000   -0.000000
  -10  -13    0    3    5   -0.000000    0.000000
  -10  -13    0    4    5    0.000000    0.000000
  -10  -13    0    5    5   -0.000000    0.000000
  -10  -12    0    1    1   -0.000001    0.000000
  -10  -12    0    2    1   -0.000000    0.000000
  -10  -12    0    3    1    0.000000    0.000000
  -10  -12    0    4    1   -0.000000    0.000000
  -10  -12    0    5    1    0.000001    0.000000
  -10  -12    0    1    2   -0.000000   -0.000000
  -10  -12    0    2    2    0.000000    0.000000
  -10  -12    0    3    2    0.000001    0.000000
  -10  -12    0    4    2   -0.000000    0.000000
  -10  -12    0    5    2   -0.000000   -0.000000
  -10  -12    0    1    3    0.000000   -0.000000
  -10  -12    0    2    3    0.000001    0.000000
  -10  -12    0    3    3    0.000001   -0.000000
  -10  -12    0    4    3    0.000000    0.000000
  -10  -12    0    5    3   -0.000000   -0.000000
  -10  -12    0    1    4   -0.000000   -0.000000
  -10  -12    0    2    4   -0.000000    0.000000
  -10  -12    0    3    4    0.000000    0.000000
  -10  -12    0    4    4   -0.000000   -0.000000
  -10  -12    0    5    4   -0.000001    0.000000
  -10  -12    0    1    5    0.000001   -0.000000
  -10  -12    0    2    5   -0.000000   -0.000000
  -10  -12    0    3    5   -0.000000   -0.000000
  -10  -12    0    4    5   -0.000001    0.000000
  -10  -12    0    5    5    0.000000    0.000000
  -10  -11    0    1    1   -0.000000    0.000000
  -10  -11    0    2    1   -0.000000   -0.000000
  -10  -11    0    3    1    0.000000   -0.000000
  -10  -11    0    4    1   -0.000000   -0.000000
  -10  -11    0    5    1    0.000000   -0.000000
  -10  -11    0    1    2   -0.000000   -0.000000
  -10  -11    0    2    2   -0.000000   -0.000000
  -10  -11    0    3    2    0.000000   -0.000000
  -10  -11    0    4    2   -0.000000   -0.000000
  -10  -11    0    5    2    0.000000   -0.000000
  -10  -11    0    1    3    0.000000   -0.000000
  -10  -11    0    2    3    0.000000   -0.000000
  -10  -11    0    3    3    0.000000    0.000000
  -10  -11    0    4    3    0.000000    0.000000
  -10  -11    0    5    3   -0.000000    0.000000
  -10  -11    0    1    4   -0.000000   -0.000000
  -10  -11    0    2    4   -0.000000   -0.000000
  -10  -11    0    3    4    0.000000   -0.000000
  -10  -11    0    4    4    0.000001   -0.000000
  -10  -11    0    5    4   -0.000000    0.000000
  -10  -11    0    1    5    0.000000   -0.000000
  -10  -11    0    2    5    0.000000    0.000000
  -10  -11    0    3    5   -0.000000    0.000000
  -10  -11    0    4    5   -0.000000    0.000000
  -10  -11    0    5    5    0.000000    0.000000
  -10  -10    0    1    1   -0.000000   -0.000000
  -10  -10    0    2    1   -0.000000   -0.000000
  -10  -10    0    3    1    0.000000   -0.000000
  -10  -10    0    4    1   -0.000000   -0.000000
  -10  -10    0    5    1    0.000000   -0.000000
  -10  -10    0    1    2   -0.000000    0.000000
  -10  -10    0    2    2   -0.000001   -0.000000
  -10  -10    0    3    2    0.000001    0.000000
  -10  -10    0    4    2   -0.000000   -0.000000
  -10  -10    0    5    2    0.000000    0.000000
  -10  -10    0    1    3    0.000000    0.000000
  -10  -10    0    2    3    0.000001   -0.000000
  -10  -10    0    3    3    0.000001    0.000000
  -10  -10    0    4    3    0.000000   -0.000000
  -10  -10    0    5    3   -0.000000   -0.000000
  -10  -10    0    1    4   -0.000000    0.000000
  -10  -10    0    2    4   -0.000000   -0.000000
  -10  -10    0    3    4    0.000000    0.000000
  -10  -10    0    4    4   -0.000000    0.000000
  -10  -10    0    5    4    0.000000    0.000000
  -10  -10    0    1    5    0.000000    0.000000
  -10  -10    0    2    5    0.000000   -0.000000
  -10  -10    0    3    5   -0.000000   -0.000000
  -10  -10    0    4    5    0.000000   -0.000000
  -10  -10    0    5    5   -0.000000   -0.000000
  -10   -9    0    1    1    0.000000    0.000000
  -10   -9    0    2    1   -0.000001    0.000000
  -10   -9    0    3    1    0.000000    0.000000
  -10   -9    0    4    1   -0.000000    0.000000
  -10   -9    0    5    1    0.000000    0.000000
  -10   -9    0    1    2   -0.000001    0.000000
  -10   -9    0    2    2   -0.000001    0.000000
  -10   -9    0    3    2   -0.000000    0.000000
  -10   -9    0    4    2    0.000000    0.000000
  -10   -9    0    5    2    0.000000   -0.000000
  -10   -9    0    1    3    0.000000    0.000000
  -10   -9    0    2    3   -0.000000    0.000000
  -10   -9    0    3    3    0.000001   -0.000000
  -10   -9    0    4    3   -0.000000    0.000000
  -10   -9    0    5    3    0.000000   -0.000000
  -10   -9    0    1    4   -0.000000    0.000000
  -10   -9    0    2    4    0.000000    0.000000
  -10   -9    0    3    4   -0.000000   -0.000000
  -10   -9    0    4    4    0.000000    0.000000
  -10   -9    0    5    4   -0.000000   -0.000000
  -10   -9    0    1    5    0.000000    0.000000
  -10   -9    0    2    5    0.000000    0.000000
  -10   -9    0    3    5    0.000000   -0.000000
  -10   -9    0    4    5   -0.000000   -0.000000
  -10   -9    0    5    5    0.000001   -0.000000
  -10   -8    0    1    1   -0.000001    0.000000
  -10   -8    0    2    1   -0.000001   -0.000000
  -10   -8    0    3    1    0.000000   -0.000000
  -10   -8    0    4    1   -0.000000    0.000000
  -10   -8    0    5    1    0.000001   -0.000000
  -10   -8    0    1    2   -0.000001    0.000000
  -10   -8    0    2    2   -0.000001   -0.000000
  -10   -8    0    3    2   -0.000000   -0.000000
  -10   -8    0    4    2   -0.000000   -0.000000
  -10   -8    0    5    2    0.000000    0.000000
  -10   -8    0    1    3    0.000000   -0.000000
  -10   -8    0    2    3   -0.000000   -0.000000
  -10   -8    0    3    3    0.000001    0.000000
  -10   -8    0    4    3   -0.000000   -0.000000
  -10   -8    0    5    3    0.000000    0.000000
  -10   -8    0    1    4   -0.000000    0.000000
  -10   -8    0    2    4   -0.000000   -0.000000
  -10   -8    0    3    4   -0.000000   -0.000000
  -10   -8    0    4    4    0.000001    0.000000
  -10   -8    0    5    4    0.000000   -0.000000
  -10   -8    0    1    5    0.000001    0.000000
  -10   -8    0    2    5    0.000000    0.000000
  -10   -8    0    3    5    0.000000    0.000000
  -10   -8    0    4    5    0.000000   -0.000000
  -10   -8    0    5    5   -0.000000   -0.000000
  -10   -7    0    1    1    0.000000   -0.000000
  -10   -7    0    2    1   -0.000001    0.000000
  -10   -7    0    3    1   -0.000000    0.000000
  -10   -7    0    4    1   -0.000000    0.000000
  -10   -7    0    5    1   -0.000000    0.000000
  -10   -7    0    1    2   -0.000001    0.000000
  -10   -7    0    2    2   -0.000001    0.000000
  -10   -7    0    3    2   -0.000000    0.000000
  -10   -7    0    4    2    0.000000    0.000000
  -10   -7    0    5    2    0.000000    0.000000
  -10   -7    0    1    3   -0.000000    0.000000
  -10   -7    0    2    3   -0.000000    0.000000
  -10   -7    0    3    3    0.000000   -0.000000
  -10   -7    0    4    3   -0.000000   -0.000000
  -10   -7    0    5    3    0.000000   -0.000000
  -10   -7    0    1    4   -0.000000    0.000000
  -10   -7    0    2    4    0.000000    0.000000
  -10   -7    0    3    4   -0.000000   -0.000000
  -10   -7    0    4    4    0.000000    0.000000
  -10   -7    0    5    4   -0.000000   -0.000000
  -10   -7    0    1    5   -0.000000    0.000000
  -10   -7    0    2    5    0.000000    0.000000
  -10   -7    0    3    5    0.000000   -0.000000
  -10   -7    0    4    5   -0.000000    0.000000
  -10   -7    0    5    5    0.000001   -0.000000
  -10   -6    0    1    1   -0.000000    0.000000
  -10   -6    0    2    1   -0.000001   -0.000000
  -10   -6    0    3    1   -0.000000    0.000000
  -10   -6    0    4    1   -0.000000    0.000000
  -10   -6    0    5    1    0.000001   -0.000000
  -10   -6    0    1    2   -0.000001    0.000000
  -10   -6    0    2    2    0.000000   -0.000000
  -10   -6    0    3    2    0.000000    0.000000
  -10   -6    0    4    2    0.000000   -0.000000
  -10   -6    0    5    2    0.000000   -0.000000
  -10   -6    0    1    3   -0.000000   -0.000000
  -10   -6    0    2    3    0.000000   -0.000000
  -10   -6    0    3    3    0.000001    0.000000
  -10   -6    0    4    3   -0.000000    0.000000
  -10   -6    0    5    3    0.000000    0.000000
  -10   -6    0    1    4   -0.000000   -0.000000
  -10   -6    0    2    4    0.000000   -0.000000
  -10   -6    0    3    4   -0.000000   -0.000000
  -10   -6    0    4    4    0.000000    0.000000
  -10   -6    0    5    4    0.000000    0.000000
  -10   -6    0    1    5    0.000001    0.000000
  -10   -6    0    2    5    0.000000    0.000000
  -10   -6    0    3    5    0.000000    0.000000
  -10   -6    0    4    5    0.000000   -0.000000
  -10   -6    0    5    5    0.000000   -0.000000
  -10   -5    0    1    1   -0.000001    0.000000
  -10   -5    0    2    1   -0.000001    0.000000
  -10   -5    0    3    1   -0.000000   -0.000000
  -10   -5    0    4    1   -0.000000   -0.000000
  -10   -5    0    5    1   -0.000001    0.000000
  -10   -5    0    1    2   -0.000001   -0.000000
  -10   -5    0    2    2   -0.000002    0.000000
  -10   -5    0    3    2   -0.000001   -0.000000
  -10   -5    0    4    2    0.000000    0.000000
  -10   -5    0    5    2    0.000000    0.000000
  -10   -5    0    1    3   -0.000000    0.000000
  -10   -5    0    2    3   -0.000001   -0.000000
  -10   -5    0    3    3   -0.000000   -0.000000
  -10   -5    0    4    3   -0.000000   -0.000000
  -10   -5    0    5    3    0.000000   -0.000000
  -10   -5    0    1    4   -0.000000    0.000000
  -10   -5    0    2    4    0.000000    0.000000
  -10   -5    0    3    4   -0.000000    0.000000
  -10   -5    0    4    4   -0.000000    0.000000
  -10   -5    0    5    4    0.000001    0.000000
  -10   -5    0    1    5   -0.000001   -0.000000
  -10   -5    0    2    5    0.000000   -0.000000
  -10   -5    0    3    5    0.000000    0.000000
  -10   -5    0    4    5    0.000001    0.000000
  -10   -5    0    5    5    0.000000   -0.000000
  -10   -4    0    1    1   -0.000000    0.000000
  -10   -4    0    2    1   -0.000000   -0.000000
  -10   -4    0    3    1   -0.000000    0.000000
  -10   -4    0    4    1    0.000001    0.000000
  -10   -4    0    5    1    0.000000   -0.000000
  -10   -4    0    1    2   -0.000000    0.000000
  -10   -4    0    2    2    0.000001   -0.000000
  -10   -4    0    3    2   -0.000000    0.000000
  -10   -4    0    4    2    0.000000   -0.000000
  -10   -4    0    5    2    0.000000   -0.000000
  -10   -4    0    1    3   -0.000000   -0.000000
  -10   -4    0    2    3   -0.000000   -0.000000
[...]
   13    8    0    2    1   -0.000000   -0.000000
   13    8    0    3    1   -0.000000    0.000000
   13    8    0    4    1    0.000000    0.000000
   13    8    0    5    1    0.000000   -0.000000
   13    8    0    1    2   -0.000000   -0.000000
   13    8    0    2    2    0.000000   -0.000000
   13    8    0    3    2   -0.000000   -0.000000
   13    8    0    4    2    0.000000    0.000000
   13    8    0    5    2    0.000000   -0.000000
   13    8    0    1    3   -0.000000   -0.000000
   13    8    0    2    3   -0.000000   -0.000000
   13    8    0    3    3    0.000001    0.000000
   13    8    0    4    3   -0.000000    0.000000
   13    8    0    5    3    0.000000    0.000000
   13    8    0    1    4    0.000000   -0.000000
   13    8    0    2    4    0.000000   -0.000000
   13    8    0    3    4   -0.000000   -0.000000
   13    8    0    4    4    0.000001   -0.000000
   13    8    0    5    4   -0.000000    0.000000
   13    8    0    1    5    0.000000    0.000000
   13    8    0    2    5    0.000000    0.000000
   13    8    0    3    5    0.000000   -0.000000
   13    8    0    4    5   -0.000000    0.000000
   13    8    0    5    5   -0.000000    0.000000
   13    9    0    1    1   -0.000000    0.000000
   13    9    0    2    1   -0.000000    0.000000
   13    9    0    3    1   -0.000000    0.000000
   13    9    0    4    1   -0.000000    0.000000
   13    9    0    5    1   -0.000000    0.000000
   13    9    0    1    2   -0.000000   -0.000000
   13    9    0    2    2    0.000000    0.000000
   13    9    0    3    2   -0.000000   -0.000000
   13    9    0    4    2    0.000000   -0.000000
   13    9    0    5    2   -0.000000   -0.000000
   13    9    0    1    3   -0.000000   -0.000000
   13    9    0    2    3   -0.000000    0.000000
   13    9    0    3    3    0.000000   -0.000000
   13    9    0    4    3   -0.000000    0.000000
   13    9    0    5    3    0.000000   -0.000000
   13    9    0    1    4   -0.000000   -0.000000
   13    9    0    2    4    0.000000    0.000000
   13    9    0    3    4   -0.000000   -0.000000
   13    9    0    4    4    0.000000   -0.000000
   13    9    0    5    4   -0.000000   -0.000000
   13    9    0    1    5   -0.000000   -0.000000
   13    9    0    2    5   -0.000000    0.000000
   13    9    0    3    5    0.000000   -0.000000
   13    9    0    4    5   -0.000000    0.000000
   13    9    0    5    5    0.000001    0.000000
   13   10    0    1    1    0.000000   -0.000000
   13   10    0    2    1   -0.000000   -0.000000
   13   10    0    3    1    0.000000   -0.000000
   13   10    0    4    1   -0.000000   -0.000000
   13   10    0    5    1    0.000000   -0.000000
   13   10    0    1    2   -0.000000   -0.000000
   13   10    0    2    2    0.000000   -0.000000
   13   10    0    3    2    0.000000   -0.000000
   13   10    0    4    2   -0.000000   -0.000000
   13   10    0    5    2   -0.000000    0.000000
   13   10    0    1    3    0.000000   -0.000000
   13   10    0    2    3    0.000000   -0.000000
   13   10    0    3    3   -0.000000    0.000000
   13   10    0    4    3    0.000000   -0.000000
   13   10    0    5    3    0.000000    0.000000
   13   10    0    1    4   -0.000000    0.000000
   13   10    0    2    4   -0.000000   -0.000000
   13   10    0    3    4    0.000000    0.000000
   13   10    0    4    4   -0.000000   -0.000000
   13   10    0    5    4    0.000000    0.000000
   13   10    0    1    5    0.000000    0.000000
   13   10    0    2    5   -0.000000   -0.000000
   13   10    0    3    5    0.000000   -0.000000
   13   10    0    4    5    0.000000    0.000000
   13   10    0    5    5   -0.000000    0.000000
   13   11    0    1    1   -0.000000    0.000000
   13   11    0    2    1   -0.000000   -0.000000
   13   11    0    3    1    0.000000   -0.000000
   13   11    0    4    1   -0.000000   -0.000000
   13   11    0    5    1    0.000000   -0.000000
   13   11    0    1    2   -0.000000    0.000000
   13   11    0    2    2   -0.000000    0.000000
   13   11    0    3    2    0.000001   -0.000000
   13   11    0    4    2   -0.000000    0.000000
   13   11    0    5    2    0.000000    0.000000
   13   11    0    1    3    0.000000    0.000000
   13   11    0    2    3    0.000001    0.000000
   13   11    0    3    3    0.000001   -0.000000
   13   11    0    4    3   -0.000000   -0.000000
   13   11    0    5    3   -0.000000   -0.000000
   13   11    0    1    4   -0.000000    0.000000
   13   11    0    2    4   -0.000000   -0.000000
   13   11    0    3    4   -0.000000    0.000000
   13   11    0    4    4   -0.000000   -0.000000
   13   11    0    5    4   -0.000000    0.000000
   13   11    0    1    5    0.000000    0.000000
   13   11    0    2    5    0.000000   -0.000000
   13   11    0    3    5   -0.000000   -0.000000
   13   11    0    4    5   -0.000000    0.000000
   13   11    0    5    5    0.000000    0.000000
   14    4    0    1    1   -0.000000   -0.000000
   14    4    0    2    1   -0.000000    0.000000
   14    4    0    3    1    0.000000    0.000000
   14    4    0    4    1   -0.000001    0.000000
   14    4    0    5    1   -0.000000    0.000000
   14    4    0    1    2   -0.000000   -0.000000
   14    4    0    2    2   -0.000001   -0.000000
   14    4    0    3    2   -0.000000   -0.000000
   14    4    0    4    2    0.000000   -0.000000
   14    4    0    5    2   -0.000000   -0.000000
   14    4    0    1    3    0.000000   -0.000000
   14    4    0    2    3   -0.000000    0.000000
   14    4    0    3    3    0.000000   -0.000000
   14    4    0    4    3   -0.000000    0.000000
   14    4    0    5    3   -0.000000   -0.000000
   14    4    0    1    4   -0.000001   -0.000000
   14    4    0    2    4    0.000000    0.000000
   14    4    0    3    4   -0.000000   -0.000000
   14    4    0    4    4    0.000001   -0.000000
   14    4    0    5    4   -0.000000   -0.000000
   14    4    0    1    5   -0.000000   -0.000000
   14    4    0    2    5   -0.000000    0.000000
   14    4    0    3    5   -0.000000    0.000000
   14    4    0    4    5   -0.000000   -0.000000
   14    4    0    5    5    0.000000    0.000000
   14    5    0    1    1   -0.000000    0.000000
   14    5    0    2    1   -0.000000    0.000000
   14    5    0    3    1    0.000000   -0.000000
   14    5    0    4    1   -0.000000    0.000000
   14    5    0    5    1   -0.000000    0.000000
   14    5    0    1    2   -0.000000   -0.000000
   14    5    0    2    2   -0.000001   -0.000000
   14    5    0    3    2   -0.000000    0.000000
   14    5    0    4    2    0.000000   -0.000000
   14    5    0    5    2    0.000000   -0.000000
   14    5    0    1    3    0.000000   -0.000000
   14    5    0    2    3   -0.000000    0.000000
   14    5    0    3    3   -0.000000    0.000000
   14    5    0    4    3    0.000000    0.000000
   14    5    0    5    3   -0.000000   -0.000000
   14    5    0    1    4   -0.000000   -0.000000
   14    5    0    2    4    0.000000    0.000000
   14    5    0    3    4    0.000000   -0.000000
   14    5    0    4    4    0.000000   -0.000000
   14    5    0    5    4    0.000000   -0.000000
   14    5    0    1    5   -0.000000   -0.000000
   14    5    0    2    5    0.000000    0.000000
   14    5    0    3    5   -0.000000    0.000000
   14    5    0    4    5    0.000000    0.000000
   14    5    0    5    5   -0.000000    0.000000
   14    6    0    1    1    0.000000    0.000000
   14    6    0    2    1    0.000000   -0.000000
   14    6    0    3    1   -0.000000    0.000000
   14    6    0    4    1   -0.000000    0.000000
   14    6    0    5    1   -0.000000   -0.000000
   14    6    0    1    2    0.000000    0.000000
   14    6    0    2    2    0.000000    0.000000
   14    6    0    3    2   -0.000000    0.000000
   14    6    0    4    2   -0.000000    0.000000
   14    6    0    5    2   -0.000000   -0.000000
   14    6    0    1    3   -0.000000   -0.000000
   14    6    0    2    3   -0.000000   -0.000000
   14    6    0    3    3   -0.000000   -0.000000
   14    6    0    4    3    0.000000    0.000000
   14    6    0    5    3    0.000000    0.000000
   14    6    0    1    4   -0.000000   -0.000000
   14    6    0    2    4   -0.000000   -0.000000
   14    6    0    3    4    0.000000   -0.000000
   14    6    0    4    4   -0.000000   -0.000000
   14    6    0    5    4    0.000000    0.000000
   14    6    0    1    5   -0.000000    0.000000
   14    6    0    2    5   -0.000000    0.000000
   14    6    0    3    5    0.000000   -0.000000
   14    6    0    4    5    0.000000   -0.000000
   14    6    0    5    5    0.000000    0.000000
   14    7    0    1    1    0.000001   -0.000000
   14    7    0    2    1   -0.000000    0.000000
   14    7    0    3    1   -0.000000   -0.000000
   14    7    0    4    1    0.000000   -0.000000
   14    7    0    5    1    0.000000    0.000000
   14    7    0    1    2   -0.000000   -0.000000
   14    7    0    2    2    0.000000   -0.000000
   14    7    0    3    2    0.000000    0.000000
   14    7    0    4    2    0.000000   -0.000000
   14    7    0    5    2   -0.000000    0.000000
   14    7    0    1    3   -0.000000    0.000000
   14    7    0    2    3    0.000000    0.000000
   14    7    0    3    3   -0.000000    0.000000
   14    7    0    4    3   -0.000000   -0.000000
   14    7    0    5    3    0.000000   -0.000000
   14    7    0    1    4    0.000000    0.000000
   14    7    0    2    4    0.000000   -0.000000
   14    7    0    3    4   -0.000000    0.000000
   14    7    0    4    4    0.000000   -0.000000
   14    7    0    5    4    0.000000   -0.000000
   14    7    0    1    5    0.000000   -0.000000
   14    7    0    2    5   -0.000000   -0.000000
   14    7    0    3    5    0.000000    0.000000
   14    7    0    4    5    0.000000   -0.000000
   14    7    0    5    5    0.000001    0.000000
   14    8    0    1    1    0.000000    0.000000
   14    8    0    2    1   -0.000000    0.000000
   14    8    0    3    1    0.000000    0.000000
   14    8    0    4    1   -0.000000    0.000000
   14    8    0    5    1   -0.000000    0.000000
   14    8    0    1    2   -0.000000   -0.000000
   14    8    0    2    2   -0.000000    0.000000
   14    8    0    3    2    0.000000   -0.000000
   14    8    0    4    2   -0.000000    0.000000
   14    8    0    5    2    0.000000   -0.000000
   14    8    0    1    3    0.000000   -0.000000
   14    8    0    2    3    0.000000    0.000000
   14    8    0    3    3    0.000000   -0.000000
   14    8    0    4    3    0.000000    0.000000
   14    8    0    5    3   -0.000000   -0.000000
   14    8    0    1    4   -0.000000   -0.000000
   14    8    0    2    4   -0.000000    0.000000
   14    8    0    3    4    0.000000   -0.000000
   14    8    0    4    4   -0.000000   -0.000000
   14    8    0    5    4    0.000000    0.000000
   14    8    0    1    5   -0.000000   -0.000000
   14    8    0    2    5    0.000000    0.000000
   14    8    0    3    5   -0.000000   -0.000000
   14    8    0    4    5    0.000000   -0.000000
   14    8    0    5    5    0.000000    0.000000
   14    9    0    1    1   -0.000000    0.000000
   14    9    0    2    1    0.000000   -0.000000
   14    9    0    3    1   -0.000000   -0.000000
   14    9    0    4    1   -0.000000   -0.000000
   14    9    0    5    1   -0.000000   -0.000000
   14    9    0    1    2    0.000000    0.000000
   14    9    0    2    2   -0.000001   -0.000000
   14    9    0    3    2   -0.000000   -0.000000
   14    9    0    4    2    0.000000    0.000000
   14    9    0    5    2    0.000000    0.000000
   14    9    0    1    3   -0.000000    0.000000
   14    9    0    2    3   -0.000000   -0.000000
   14    9    0    3    3   -0.000001    0.000000
   14    9    0    4    3    0.000000   -0.000000
   14    9    0    5    3    0.000000    0.000000
   14    9    0    1    4   -0.000000    0.000000
   14    9    0    2    4    0.000000   -0.000000
   14    9    0    3    4    0.000000    0.000000
   14    9    0    4    4   -0.000000   -0.000000
   14    9    0    5    4    0.000000   -0.000000
   14    9    0    1    5   -0.000000    0.000000
   14    9    0    2    5    0.000000   -0.000000
   14    9    0    3    5    0.000000   -0.000000
   14    9    0    4    5    0.000000    0.000000
   14    9    0    5    5    0.000000    0.000000
   14   10    0    1    1   -0.000000   -0.000000
   14   10    0    2    1    0.000000   -0.000000
   14   10    0    3    1   -0.000000   -0.000000
   14   10    0    4    1    0.000000   -0.000000
   14   10    0    5    1   -0.000001   -0.000000
   14   10    0    1    2    0.000000    0.000000
   14   10    0    2    2   -0.000000    0.000000
   14   10    0    3    2   -0.000000   -0.000000
   14   10    0    4    2    0.000000    0.000000
   14   10    0    5    2   -0.000000    0.000000
   14   10    0    1    3   -0.000000    0.000000
   14   10    0    2    3   -0.000000    0.000000
   14   10    0    3    3   -0.000001   -0.000000
   14   10    0    4    3   -0.000000   -0.000000
   14   10    0    5    3    0.000000    0.000000
   14   10    0    1    4    0.000000    0.000000
   14   10    0    2    4    0.000000   -0.000000
   14   10    0    3    4   -0.000000    0.000000
   14   10    0    4    4    0.000001   -0.000000
   14   10    0    5    4   -0.000000    0.000000
   14   10    0    1    5   -0.000001    0.000000
   14   10    0    2    5   -0.000000   -0.000000
   14   10    0    3    5    0.000000   -0.000000
   14   10    0    4    5   -0.000000    0.000000
   14   10    0    5    5    0.000001    0.000000
   15    6    0    1    1    0.000001    0.000000
   15    6    0    2    1   -0.000000    0.000000
   15    6    0    3    1   -0.000000    0.000000
   15    6    0    4    1    0.000001   -0.000000
   15    6    0    5    1   -0.000000    0.000000
   15    6    0    1    2   -0.000000   -0.000000
   15    6    0    2    2    0.000001    0.000000
   15    6    0    3    2   -0.000000   -0.000000
   15    6    0    4    2    0.000000   -0.000000
   15    6    0    5    2   -0.000000   -0.000000
   15    6    0    1    3   -0.000000   -0.000000
   15    6    0    2    3   -0.000000   -0.000000
   15    6    0    3    3    0.000001    0.000000
   15    6    0    4    3   -0.000000    0.000000
   15    6    0    5    3   -0.000000   -0.000000
   15    6    0    1    4    0.000001    0.000000
   15    6    0    2    4    0.000000    0.000000
   15    6    0    3    4   -0.000000   -0.000000
   15    6    0    4    4    0.000001    0.000000
   15    6    0    5    4   -0.000000    0.000000
   15    6    0    1    5   -0.000000   -0.000000
   15    6    0    2    5   -0.000000    0.000000
   15    6    0    3    5   -0.000000    0.000000
   15    6    0    4    5   -0.000000   -0.000000
   15    6    0    5    5    0.000001    0.000000
   15    7    0    1    1   -0.000000   -0.000000
   15    7    0    2    1    0.000000    0.000000
   15    7    0    3    1    0.000000    0.000000
   15    7    0    4    1    0.000000    0.000000
   15    7    0    5    1   -0.000000    0.000000
   15    7    0    1    2    0.000000   -0.000000
   15    7    0    2    2    0.000001    0.000000
   15    7    0    3    2    0.000000    0.000000
   15    7    0    4    2    0.000000   -0.000000
   15    7    0    5    2   -0.000000   -0.000000
   15    7    0    1    3    0.000000   -0.000000
   15    7    0    2    3    0.000000   -0.000000
   15    7    0    3    3    0.000000   -0.000000
   15    7    0    4    3   -0.000000    0.000000
   15    7    0    5    3   -0.000000   -0.000000
   15    7    0    1    4    0.000000   -0.000000
   15    7    0    2    4    0.000000    0.000000
   15    7    0    3    4   -0.000000   -0.000000
   15    7    0    4    4   -0.000000    0.000000
   15    7    0    5    4   -0.000000    0.000000
   15    7    0    1    5   -0.000000   -0.000000
   15    7    0    2    5   -0.000000    0.000000
   15    7    0    3    5   -0.000000    0.000000
   15    7    0    4    5   -0.000000   -0.000000
   15    7    0    5    5   -0.000000   -0.000000
   15    8    0    1    1   -0.000000   -0.000000
   15    8    0    2    1    0.000000   -0.000000
   15    8    0    3    1   -0.000000   -0.000000
   15    8    0    4    1   -0.000000   -0.000000
   15    8    0    5    1    0.000000   -0.000000
   15    8    0    1    2    0.000000    0.000000
   15    8    0    2    2    0.000001   -0.000000
   15    8    0    3    2    0.000000   -0.000000
   15    8    0    4    2   -0.000000    0.000000
   15    8    0    5    2   -0.000000    0.000000
   15    8    0    1    3   -0.000000    0.000000
   15    8    0    2    3    0.000000    0.000000
   15    8    0    3    3    0.000000    0.000000
   15    8    0    4    3   -0.000000   -0.000000
   15    8    0    5    3    0.000000    0.000000
   15    8    0    1    4   -0.000000    0.000000
   15    8    0    2    4   -0.000000   -0.000000
   15    8    0    3    4   -0.000000    0.000000
   15    8    0    4    4   -0.000000   -0.000000
   15    8    0    5    4   -0.000000   -0.000000
   15    8    0    1    5    0.000000    0.000000
   15    8    0    2    5   -0.000000   -0.000000
   15    8    0    3    5    0.000000    0.000000
   15    8    0    4    5   -0.000000    0.000000
   15    8    0    5    5   -0.000000    0.000000
   15    9    0    1    1    0.000001   -0.000000
   15    9    0    2    1   -0.000000   -0.000000
   15    9    0    3    1    0.000000   -0.000000
   15    9    0    4    1   -0.000000   -0.000000
   15    9    0    5    1    0.000000   -0.000000
   15    9    0    1    2   -0.000000    0.000000
   15    9    0    2    2    0.000001    0.000000
   15    9    0    3    2    0.000000   -0.000000
   15    9    0    4    2    0.000000    0.000000
   15    9    0    5    2   -0.000000    0.000000
   15    9    0    1    3    0.000000    0.000000
   15    9    0    2    3    0.000000    0.000000
   15    9    0    3    3    0.000001   -0.000000
   15    9    0    4    3   -0.000000   -0.000000
   15    9    0    5    3    0.000000    0.000000
   15    9    0    1    4   -0.000000    0.000000
   15    9    0    2    4    0.000000   -0.000000
   15    9    0    3    4   -0.000000    0.000000
   15    9    0    4    4    0.000001   -0.000000
   15    9    0    5    4   -0.000000    0.000000
   15    9    0    1    5    0.000000    0.000000
   15    9    0    2    5   -0.000000   -0.000000
   15    9    0    3    5    0.000000   -0.000000
   15    9    0    4    5   -0.000000   -0.000000
   15    9    0    5    5    0.000001    0.000000
   16    8    0    1    1   -0.000001    0.000000
   16    8    0    2    1    0.000000    0.000000
   16    8    0    3    1   -0.000000   -0.000000
   16    8    0    4    1   -0.000000   -0.000000
   16    8    0    5    1    0.000000    0.000000
   16    8    0    1    2    0.000000   -0.000000
   16    8    0    2    2    0.000001   -0.000000
   16    8    0    3    2    0.000000   -0.000000
   16    8    0    4    2    0.000000   -0.000000
   16    8    0    5    2   -0.000000    0.000000
   16    8    0    1    3   -0.000000    0.000000
   16    8    0    2    3    0.000000    0.000000
   16    8    0    3    3    0.000001   -0.000000
   16    8    0    4    3   -0.000000   -0.000000
   16    8    0    5    3   -0.000000   -0.000000
   16    8    0    1    4   -0.000000    0.000000
   16    8    0    2    4    0.000000    0.000000
   16    8    0    3    4   -0.000000    0.000000
   16    8    0    4    4   -0.000000    0.000000
   16    8    0    5    4   -0.000000    0.000000
   16    8    0    1    5    0.000000   -0.000000
   16    8    0    2    5   -0.000000   -0.000000
   16    8    0    3    5   -0.000000    0.000000
   16    8    0    4    5   -0.000000   -0.000000
   16    8    0    5    5   -0.000000   -0.000000
