
     Program PWSCF v.7.2 starts on 23Sep2023 at 18:34: 4 

     This program is part of the open-source Quantum ESPRESSO suite
     for quantum simulation of materials; please cite
         "P. Giannozzi et al., J. Phys.:Condens. Matter 21 395502 (2009);
         "P. Giannozzi et al., J. Phys.:Condens. Matter 29 465901 (2017);
         "P. Giannozzi et al., J. Chem. Phys. 152 154105 (2020);
          URL http://www.quantum-espresso.org", 
     in publications or presentations arising from this work. More details at
     http://www.quantum-espresso.org/quote

     Parallel version (MPI), running on     4 processors

     MPI processes distributed on     1 nodes
     26442 MiB available memory on the printing compute node when the environment starts
 
     Waiting for input...
     Reading input from standard input
Warning: card END KPOINTS ignored

     Current dimensions of program PWSCF are:
     Max number of different atomic species (ntypx) = 10
     Max number of k-points (npk) =  40000
     Max angular momentum in pseudopotentials (lmaxx) =  4

     Atomic positions and unit cell read from directory:
     ./FeCl2.save/
     Atomic positions from file used, from input discarded
 
     file Fe.pbe-spn-kjpaw_psl.1.0.0.UPF: wavefunction(s)  3P 3D renormalized
     file Cl.pbe-n-kjpaw_psl.1.0.0.UPF: wavefunction(s)  3S 3P renormalized
 
     R & G space division:  proc/nbgrp/npool/nimage =       4
     Subspace diagonalization in iterative solution of the eigenvalue problem:
     a serial algorithm will be used

 
     Parallelization info
     --------------------
     sticks:   dense  smooth     PW     G-vecs:    dense   smooth      PW
     Min         561     228     81               128259    32454    7143
     Max         562     229     86               128284    32471    7148
     Sum        2245     913    337               513077   129839   28583
 
     Using Slab Decomposition
 


     bravais-lattice index     =            4
     lattice parameter (alat)  =       6.5573  a.u.
     unit-cell volume          =    1342.9567 (a.u.)^3
     number of atoms/cell      =            3
     number of atomic types    =            2
     number of electrons       =        30.00
     number of Kohn-Sham states=           28
     kinetic-energy cutoff     =      80.0000  Ry
     charge density cutoff     =     800.0000  Ry
     Exchange-correlation= SLA  PW   PBX  PBC
                           (   1   4   3   4   0   0   0)

     celldm(1)=   6.557350  celldm(2)=   0.000000  celldm(3)=   5.763689
     celldm(4)=   0.000000  celldm(5)=   0.000000  celldm(6)=   0.000000

     crystal axes: (cart. coord. in units of alat)
               a(1) = (   0.976839   0.000000   0.000000 )  
               a(2) = (  -0.488419   0.845967   0.000000 )  
               a(3) = (   0.000000   0.000000   5.763689 )  

     reciprocal axes: (cart. coord. in units 2 pi/alat)
               b(1) = (  1.023710  0.591039  0.000000 )  
               b(2) = (  0.000000  1.182079  0.000000 )  
               b(3) = (  0.000000  0.000000  0.173500 )  


     PseudoPot. # 1 for Fe read from file:
     ./Fe.pbe-spn-kjpaw_psl.1.0.0.UPF
     MD5 check sum: fc81f059e5c5069939230b1155715ae8
     Pseudo is Projector augmented-wave + core cor, Zval = 16.0
     Generated using &quot;atomic&quot; code by A. Dal Corso  v.6.3
     Shape of augmentation charge: PSQ
     Using radial grid of 1191 points,  6 beta functions with: 
                l(1) =   0
                l(2) =   0
                l(3) =   1
                l(4) =   1
                l(5) =   2
                l(6) =   2
     Q(r) pseudized with 0 coefficients 


     PseudoPot. # 2 for Cl read from file:
     ./Cl.pbe-n-kjpaw_psl.1.0.0.UPF
     MD5 check sum: 530da96d25dcb7781b0586ca00827062
     Pseudo is Projector augmented-wave + core cor, Zval =  7.0
     Generated using &quot;atomic&quot; code by A. Dal Corso  v.6.3
     Shape of augmentation charge: PSQ
     Using radial grid of 1157 points,  6 beta functions with: 
                l(1) =   0
                l(2) =   0
                l(3) =   1
                l(4) =   1
                l(5) =   2
                l(6) =   2
     Q(r) pseudized with 0 coefficients 


     atomic species   valence    mass     pseudopotential
        Fe            16.00    55.84700     Fe( 1.00)
        Cl             7.00    35.45270     Cl( 1.00)

     12 Sym. Ops., with inversion, found


                                    s                        frac. trans.

      isym =  1     identity                                     

 cryst.   s( 1) = (     1          0          0      )
                  (     0          1          0      )
                  (     0          0          1      )

 cart.    s( 1) = (  1.0000000  0.0000000  0.0000000 )
                  (  0.0000000  1.0000000  0.0000000 )
                  (  0.0000000  0.0000000  1.0000000 )


      isym =  2     180 deg rotation - cart. axis [1,0,0]        

 cryst.   s( 2) = (     1          0          0      )
                  (    -1         -1          0      )
                  (     0          0         -1      )

 cart.    s( 2) = (  1.0000000  0.0000000  0.0000000 )
                  (  0.0000000 -1.0000000  0.0000000 )
                  (  0.0000000  0.0000000 -1.0000000 )


      isym =  3     120 deg rotation - cryst. axis [0,0,1]       

 cryst.   s( 3) = (     0          1          0      )
                  (    -1         -1          0      )
                  (     0          0          1      )

 cart.    s( 3) = ( -0.5000000 -0.8660254  0.0000000 )
                  (  0.8660254 -0.5000000  0.0000000 )
                  (  0.0000000  0.0000000  1.0000000 )


      isym =  4     120 deg rotation - cryst. axis [0,0,-1]      

 cryst.   s( 4) = (    -1         -1          0      )
                  (     1          0          0      )
                  (     0          0          1      )

 cart.    s( 4) = ( -0.5000000  0.8660254  0.0000000 )
                  ( -0.8660254 -0.5000000  0.0000000 )
                  (  0.0000000  0.0000000  1.0000000 )


      isym =  5     180 deg rotation - cryst. axis [0,1,0]       

 cryst.   s( 5) = (    -1         -1          0      )
                  (     0          1          0      )
                  (     0          0         -1      )

 cart.    s( 5) = ( -0.5000000 -0.8660254  0.0000000 )
                  ( -0.8660254  0.5000000  0.0000000 )
                  (  0.0000000  0.0000000 -1.0000000 )


      isym =  6     180 deg rotation - cryst. axis [1,1,0]       

 cryst.   s( 6) = (     0          1          0      )
                  (     1          0          0      )
                  (     0          0         -1      )

 cart.    s( 6) = ( -0.5000000  0.8660254  0.0000000 )
                  (  0.8660254  0.5000000  0.0000000 )
                  (  0.0000000  0.0000000 -1.0000000 )


      isym =  7     inversion                                    

 cryst.   s( 7) = (    -1          0          0      )
                  (     0         -1          0      )
                  (     0          0         -1      )

 cart.    s( 7) = ( -1.0000000  0.0000000  0.0000000 )
                  (  0.0000000 -1.0000000  0.0000000 )
                  (  0.0000000  0.0000000 -1.0000000 )


      isym =  8     inv. 180 deg rotation - cart. axis [1,0,0]   

 cryst.   s( 8) = (    -1          0          0      )
                  (     1          1          0      )
                  (     0          0          1      )

 cart.    s( 8) = ( -1.0000000  0.0000000  0.0000000 )
                  (  0.0000000  1.0000000  0.0000000 )
                  (  0.0000000  0.0000000  1.0000000 )


      isym =  9     inv. 120 deg rotation - cryst. axis [0,0,1]  

 cryst.   s( 9) = (     0         -1          0      )
                  (     1          1          0      )
                  (     0          0         -1      )

 cart.    s( 9) = (  0.5000000  0.8660254  0.0000000 )
                  ( -0.8660254  0.5000000  0.0000000 )
                  (  0.0000000  0.0000000 -1.0000000 )


      isym = 10     inv. 120 deg rotation - cryst. axis [0,0,-1] 

 cryst.   s(10) = (     1          1          0      )
                  (    -1          0          0      )
                  (     0          0         -1      )

 cart.    s(10) = (  0.5000000 -0.8660254  0.0000000 )
                  (  0.8660254  0.5000000  0.0000000 )
                  (  0.0000000  0.0000000 -1.0000000 )


      isym = 11     inv. 180 deg rotation - cryst. axis [0,1,0]  

 cryst.   s(11) = (     1          1          0      )
                  (     0         -1          0      )
                  (     0          0          1      )

 cart.    s(11) = (  0.5000000  0.8660254  0.0000000 )
                  (  0.8660254 -0.5000000  0.0000000 )
                  (  0.0000000  0.0000000  1.0000000 )


      isym = 12     inv. 180 deg rotation - cryst. axis [1,1,0]  

 cryst.   s(12) = (     0         -1          0      )
                  (    -1          0          0      )
                  (     0          0          1      )

 cart.    s(12) = (  0.5000000 -0.8660254  0.0000000 )
                  ( -0.8660254 -0.5000000  0.0000000 )
                  (  0.0000000  0.0000000  1.0000000 )


     point group D_3d (-3m) 
     there are  6 classes
     the character table:

       E     2C3   3C2'  i     2S6   3s_d 
A_1g   1.00  1.00  1.00  1.00  1.00  1.00
A_2g   1.00  1.00 -1.00  1.00  1.00 -1.00
E_g    2.00 -1.00  0.00  2.00 -1.00  0.00
A_1u   1.00  1.00  1.00 -1.00 -1.00 -1.00
A_2u   1.00  1.00 -1.00 -1.00 -1.00  1.00
E_u    2.00 -1.00  0.00 -2.00  1.00  0.00

     the symmetry operations in each class and the name of the first element:

     E        1
          identity                                               
     2C3      3    4
          120 deg rotation - cryst. axis [0,0,1]                 
     3C2'     2    5    6
          180 deg rotation - cart. axis [1,0,0]                  
     i        7
          inversion                                              
     2S6      9   10
          inv. 120 deg rotation - cryst. axis [0,0,1]            
     3s_d     8   11   12
          inv. 180 deg rotation - cart. axis [1,0,0]             

   Cartesian axes

     site n.     atom                  positions (alat units)
         1           Fe  tau(   1) = (   0.0000000   0.0000000   2.8818444  )
         2           Cl  tau(   2) = (   0.0000000   0.5639781   2.5295434  )
         3           Cl  tau(   3) = (   0.4884195   0.2819891   3.2341453  )

   Crystallographic axes

     site n.     atom                  positions (cryst. coord.)
         1           Fe  tau(   1) = (  0.0000000  0.0000000  0.5000000  )
         2           Cl  tau(   2) = (  0.3333333  0.6666666  0.4388758  )
         3           Cl  tau(   3) = (  0.6666667  0.3333333  0.5611242  )

     number of k points=   576  Marzari-Vanderbilt smearing, width (Ry)=  0.0100
                       cart. coord. in units 2pi/alat
        k(    1) = (   0.0000000   0.0000000   0.0000000), wk =   0.0034722
        k(    2) = (   0.0000000   0.0492533   0.0000000), wk =   0.0034722
        k(    3) = (   0.0000000   0.0985066   0.0000000), wk =   0.0034722
        k(    4) = (   0.0000000   0.1477599   0.0000000), wk =   0.0034722
        k(    5) = (   0.0000000   0.1970131   0.0000000), wk =   0.0034722
        k(    6) = (   0.0000000   0.2462664   0.0000000), wk =   0.0034722
        k(    7) = (   0.0000000   0.2955197   0.0000000), wk =   0.0034722
        k(    8) = (   0.0000000   0.3447730   0.0000000), wk =   0.0034722
        k(    9) = (   0.0000000   0.3940263   0.0000000), wk =   0.0034722
        k(   10) = (   0.0000000   0.4432796   0.0000000), wk =   0.0034722
        k(   11) = (   0.0000000   0.4925329   0.0000000), wk =   0.0034722
        k(   12) = (   0.0000000   0.5417861   0.0000000), wk =   0.0034722
        k(   13) = (   0.0000000   0.5910394   0.0000000), wk =   0.0034722
        k(   14) = (   0.0000000   0.6402927   0.0000000), wk =   0.0034722
        k(   15) = (   0.0000000   0.6895460   0.0000000), wk =   0.0034722
        k(   16) = (   0.0000000   0.7387993   0.0000000), wk =   0.0034722
        k(   17) = (   0.0000000   0.7880526   0.0000000), wk =   0.0034722
        k(   18) = (   0.0000000   0.8373059   0.0000000), wk =   0.0034722
        k(   19) = (   0.0000000   0.8865591   0.0000000), wk =   0.0034722
        k(   20) = (   0.0000000   0.9358124   0.0000000), wk =   0.0034722
        k(   21) = (   0.0000000   0.9850657   0.0000000), wk =   0.0034722
        k(   22) = (   0.0000000   1.0343190   0.0000000), wk =   0.0034722
        k(   23) = (   0.0000000   1.0835723   0.0000000), wk =   0.0034722
        k(   24) = (   0.0000000   1.1328256   0.0000000), wk =   0.0034722
        k(   25) = (   0.0426546   0.0246266   0.0000000), wk =   0.0034722
        k(   26) = (   0.0426546   0.0738799   0.0000000), wk =   0.0034722
        k(   27) = (   0.0426546   0.1231332   0.0000000), wk =   0.0034722
        k(   28) = (   0.0426546   0.1723865   0.0000000), wk =   0.0034722
        k(   29) = (   0.0426546   0.2216398   0.0000000), wk =   0.0034722
        k(   30) = (   0.0426546   0.2708931   0.0000000), wk =   0.0034722
        k(   31) = (   0.0426546   0.3201464   0.0000000), wk =   0.0034722
        k(   32) = (   0.0426546   0.3693997   0.0000000), wk =   0.0034722
        k(   33) = (   0.0426546   0.4186529   0.0000000), wk =   0.0034722
        k(   34) = (   0.0426546   0.4679062   0.0000000), wk =   0.0034722
        k(   35) = (   0.0426546   0.5171595   0.0000000), wk =   0.0034722
        k(   36) = (   0.0426546   0.5664128   0.0000000), wk =   0.0034722
        k(   37) = (   0.0426546   0.6156661   0.0000000), wk =   0.0034722
        k(   38) = (   0.0426546   0.6649194   0.0000000), wk =   0.0034722
        k(   39) = (   0.0426546   0.7141726   0.0000000), wk =   0.0034722
        k(   40) = (   0.0426546   0.7634259   0.0000000), wk =   0.0034722
        k(   41) = (   0.0426546   0.8126792   0.0000000), wk =   0.0034722
        k(   42) = (   0.0426546   0.8619325   0.0000000), wk =   0.0034722
        k(   43) = (   0.0426546   0.9111858   0.0000000), wk =   0.0034722
        k(   44) = (   0.0426546   0.9604391   0.0000000), wk =   0.0034722
        k(   45) = (   0.0426546   1.0096924   0.0000000), wk =   0.0034722
        k(   46) = (   0.0426546   1.0589457   0.0000000), wk =   0.0034722
        k(   47) = (   0.0426546   1.1081989   0.0000000), wk =   0.0034722
        k(   48) = (   0.0426546   1.1574522   0.0000000), wk =   0.0034722
        k(   49) = (   0.0853092   0.0492533   0.0000000), wk =   0.0034722
        k(   50) = (   0.0853092   0.0985066   0.0000000), wk =   0.0034722
        k(   51) = (   0.0853092   0.1477599   0.0000000), wk =   0.0034722
        k(   52) = (   0.0853092   0.1970131   0.0000000), wk =   0.0034722
        k(   53) = (   0.0853092   0.2462664   0.0000000), wk =   0.0034722
        k(   54) = (   0.0853092   0.2955197   0.0000000), wk =   0.0034722
        k(   55) = (   0.0853092   0.3447730   0.0000000), wk =   0.0034722
        k(   56) = (   0.0853092   0.3940263   0.0000000), wk =   0.0034722
        k(   57) = (   0.0853092   0.4432796   0.0000000), wk =   0.0034722
        k(   58) = (   0.0853092   0.4925329   0.0000000), wk =   0.0034722
        k(   59) = (   0.0853092   0.5417861   0.0000000), wk =   0.0034722
        k(   60) = (   0.0853092   0.5910394   0.0000000), wk =   0.0034722
        k(   61) = (   0.0853092   0.6402927   0.0000000), wk =   0.0034722
        k(   62) = (   0.0853092   0.6895460   0.0000000), wk =   0.0034722
        k(   63) = (   0.0853092   0.7387993   0.0000000), wk =   0.0034722
        k(   64) = (   0.0853092   0.7880526   0.0000000), wk =   0.0034722
        k(   65) = (   0.0853092   0.8373059   0.0000000), wk =   0.0034722
        k(   66) = (   0.0853092   0.8865591   0.0000000), wk =   0.0034722
        k(   67) = (   0.0853092   0.9358124   0.0000000), wk =   0.0034722
        k(   68) = (   0.0853092   0.9850657   0.0000000), wk =   0.0034722
        k(   69) = (   0.0853092   1.0343190   0.0000000), wk =   0.0034722
        k(   70) = (   0.0853092   1.0835723   0.0000000), wk =   0.0034722
        k(   71) = (   0.0853092   1.1328256   0.0000000), wk =   0.0034722
        k(   72) = (   0.0853092   1.1820789   0.0000000), wk =   0.0034722
        k(   73) = (   0.1279638   0.0738799   0.0000000), wk =   0.0034722
        k(   74) = (   0.1279638   0.1231332   0.0000000), wk =   0.0034722
        k(   75) = (   0.1279638   0.1723865   0.0000000), wk =   0.0034722
        k(   76) = (   0.1279638   0.2216398   0.0000000), wk =   0.0034722
        k(   77) = (   0.1279638   0.2708931   0.0000000), wk =   0.0034722
        k(   78) = (   0.1279638   0.3201464   0.0000000), wk =   0.0034722
        k(   79) = (   0.1279638   0.3693996   0.0000000), wk =   0.0034722
        k(   80) = (   0.1279638   0.4186529   0.0000000), wk =   0.0034722
        k(   81) = (   0.1279638   0.4679062   0.0000000), wk =   0.0034722
        k(   82) = (   0.1279638   0.5171595   0.0000000), wk =   0.0034722
        k(   83) = (   0.1279638   0.5664128   0.0000000), wk =   0.0034722
        k(   84) = (   0.1279638   0.6156661   0.0000000), wk =   0.0034722
        k(   85) = (   0.1279638   0.6649194   0.0000000), wk =   0.0034722
        k(   86) = (   0.1279638   0.7141727   0.0000000), wk =   0.0034722
        k(   87) = (   0.1279638   0.7634259   0.0000000), wk =   0.0034722
        k(   88) = (   0.1279638   0.8126792   0.0000000), wk =   0.0034722
        k(   89) = (   0.1279638   0.8619325   0.0000000), wk =   0.0034722
        k(   90) = (   0.1279638   0.9111858   0.0000000), wk =   0.0034722
        k(   91) = (   0.1279638   0.9604391   0.0000000), wk =   0.0034722
        k(   92) = (   0.1279638   1.0096924   0.0000000), wk =   0.0034722
        k(   93) = (   0.1279638   1.0589456   0.0000000), wk =   0.0034722
        k(   94) = (   0.1279638   1.1081989   0.0000000), wk =   0.0034722
        k(   95) = (   0.1279638   1.1574522   0.0000000), wk =   0.0034722
        k(   96) = (   0.1279638   1.2067055   0.0000000), wk =   0.0034722
        k(   97) = (   0.1706184   0.0985066   0.0000000), wk =   0.0034722
        k(   98) = (   0.1706184   0.1477599   0.0000000), wk =   0.0034722
        k(   99) = (   0.1706184   0.1970131   0.0000000), wk =   0.0034722
        k(  100) = (   0.1706184   0.2462664   0.0000000), wk =   0.0034722
        k(  101) = (   0.1706184   0.2955197   0.0000000), wk =   0.0034722
        k(  102) = (   0.1706184   0.3447730   0.0000000), wk =   0.0034722
        k(  103) = (   0.1706184   0.3940263   0.0000000), wk =   0.0034722
        k(  104) = (   0.1706184   0.4432796   0.0000000), wk =   0.0034722
        k(  105) = (   0.1706184   0.4925329   0.0000000), wk =   0.0034722
        k(  106) = (   0.1706184   0.5417861   0.0000000), wk =   0.0034722
        k(  107) = (   0.1706184   0.5910394   0.0000000), wk =   0.0034722
        k(  108) = (   0.1706184   0.6402927   0.0000000), wk =   0.0034722
        k(  109) = (   0.1706184   0.6895460   0.0000000), wk =   0.0034722
        k(  110) = (   0.1706184   0.7387993   0.0000000), wk =   0.0034722
        k(  111) = (   0.1706184   0.7880526   0.0000000), wk =   0.0034722
        k(  112) = (   0.1706184   0.8373059   0.0000000), wk =   0.0034722
        k(  113) = (   0.1706184   0.8865592   0.0000000), wk =   0.0034722
        k(  114) = (   0.1706184   0.9358124   0.0000000), wk =   0.0034722
        k(  115) = (   0.1706184   0.9850657   0.0000000), wk =   0.0034722
        k(  116) = (   0.1706184   1.0343190   0.0000000), wk =   0.0034722
        k(  117) = (   0.1706184   1.0835723   0.0000000), wk =   0.0034722
        k(  118) = (   0.1706184   1.1328256   0.0000000), wk =   0.0034722
        k(  119) = (   0.1706184   1.1820789   0.0000000), wk =   0.0034722
        k(  120) = (   0.1706184   1.2313321   0.0000000), wk =   0.0034722
        k(  121) = (   0.2132730   0.1231332   0.0000000), wk =   0.0034722
        k(  122) = (   0.2132730   0.1723865   0.0000000), wk =   0.0034722
        k(  123) = (   0.2132730   0.2216398   0.0000000), wk =   0.0034722
        k(  124) = (   0.2132730   0.2708931   0.0000000), wk =   0.0034722
        k(  125) = (   0.2132730   0.3201464   0.0000000), wk =   0.0034722
        k(  126) = (   0.2132730   0.3693996   0.0000000), wk =   0.0034722
        k(  127) = (   0.2132730   0.4186529   0.0000000), wk =   0.0034722
        k(  128) = (   0.2132730   0.4679062   0.0000000), wk =   0.0034722
        k(  129) = (   0.2132730   0.5171595   0.0000000), wk =   0.0034722
        k(  130) = (   0.2132730   0.5664128   0.0000000), wk =   0.0034722
        k(  131) = (   0.2132730   0.6156661   0.0000000), wk =   0.0034722
        k(  132) = (   0.2132730   0.6649194   0.0000000), wk =   0.0034722
        k(  133) = (   0.2132730   0.7141726   0.0000000), wk =   0.0034722
        k(  134) = (   0.2132730   0.7634259   0.0000000), wk =   0.0034722
        k(  135) = (   0.2132730   0.8126792   0.0000000), wk =   0.0034722
        k(  136) = (   0.2132730   0.8619325   0.0000000), wk =   0.0034722
        k(  137) = (   0.2132730   0.9111858   0.0000000), wk =   0.0034722
        k(  138) = (   0.2132730   0.9604391   0.0000000), wk =   0.0034722
        k(  139) = (   0.2132730   1.0096924   0.0000000), wk =   0.0034722
        k(  140) = (   0.2132730   1.0589457   0.0000000), wk =   0.0034722
        k(  141) = (   0.2132730   1.1081989   0.0000000), wk =   0.0034722
        k(  142) = (   0.2132730   1.1574522   0.0000000), wk =   0.0034722
        k(  143) = (   0.2132730   1.2067055   0.0000000), wk =   0.0034722
        k(  144) = (   0.2132730   1.2559588   0.0000000), wk =   0.0034722
        k(  145) = (   0.2559276   0.1477599   0.0000000), wk =   0.0034722
        k(  146) = (   0.2559276   0.1970131   0.0000000), wk =   0.0034722
        k(  147) = (   0.2559276   0.2462664   0.0000000), wk =   0.0034722
        k(  148) = (   0.2559276   0.2955197   0.0000000), wk =   0.0034722
        k(  149) = (   0.2559276   0.3447730   0.0000000), wk =   0.0034722
        k(  150) = (   0.2559276   0.3940263   0.0000000), wk =   0.0034722
        k(  151) = (   0.2559276   0.4432796   0.0000000), wk =   0.0034722
        k(  152) = (   0.2559276   0.4925329   0.0000000), wk =   0.0034722
        k(  153) = (   0.2559276   0.5417861   0.0000000), wk =   0.0034722
        k(  154) = (   0.2559276   0.5910394   0.0000000), wk =   0.0034722
        k(  155) = (   0.2559276   0.6402927   0.0000000), wk =   0.0034722
        k(  156) = (   0.2559276   0.6895460   0.0000000), wk =   0.0034722
        k(  157) = (   0.2559276   0.7387993   0.0000000), wk =   0.0034722
        k(  158) = (   0.2559276   0.7880526   0.0000000), wk =   0.0034722
        k(  159) = (   0.2559276   0.8373059   0.0000000), wk =   0.0034722
        k(  160) = (   0.2559276   0.8865591   0.0000000), wk =   0.0034722
        k(  161) = (   0.2559276   0.9358124   0.0000000), wk =   0.0034722
        k(  162) = (   0.2559276   0.9850657   0.0000000), wk =   0.0034722
        k(  163) = (   0.2559276   1.0343190   0.0000000), wk =   0.0034722
        k(  164) = (   0.2559276   1.0835723   0.0000000), wk =   0.0034722
        k(  165) = (   0.2559276   1.1328256   0.0000000), wk =   0.0034722
        k(  166) = (   0.2559276   1.1820789   0.0000000), wk =   0.0034722
        k(  167) = (   0.2559276   1.2313322   0.0000000), wk =   0.0034722
        k(  168) = (   0.2559276   1.2805854   0.0000000), wk =   0.0034722
        k(  169) = (   0.2985822   0.1723865   0.0000000), wk =   0.0034722
        k(  170) = (   0.2985822   0.2216398   0.0000000), wk =   0.0034722
        k(  171) = (   0.2985822   0.2708931   0.0000000), wk =   0.0034722
        k(  172) = (   0.2985822   0.3201464   0.0000000), wk =   0.0034722
        k(  173) = (   0.2985822   0.3693997   0.0000000), wk =   0.0034722
        k(  174) = (   0.2985822   0.4186529   0.0000000), wk =   0.0034722
        k(  175) = (   0.2985822   0.4679062   0.0000000), wk =   0.0034722
        k(  176) = (   0.2985822   0.5171595   0.0000000), wk =   0.0034722
        k(  177) = (   0.2985822   0.5664128   0.0000000), wk =   0.0034722
        k(  178) = (   0.2985822   0.6156661   0.0000000), wk =   0.0034722
        k(  179) = (   0.2985822   0.6649194   0.0000000), wk =   0.0034722
        k(  180) = (   0.2985822   0.7141726   0.0000000), wk =   0.0034722
        k(  181) = (   0.2985822   0.7634259   0.0000000), wk =   0.0034722
        k(  182) = (   0.2985822   0.8126792   0.0000000), wk =   0.0034722
        k(  183) = (   0.2985822   0.8619325   0.0000000), wk =   0.0034722
        k(  184) = (   0.2985822   0.9111858   0.0000000), wk =   0.0034722
        k(  185) = (   0.2985822   0.9604391   0.0000000), wk =   0.0034722
        k(  186) = (   0.2985822   1.0096924   0.0000000), wk =   0.0034722
        k(  187) = (   0.2985822   1.0589457   0.0000000), wk =   0.0034722
        k(  188) = (   0.2985822   1.1081989   0.0000000), wk =   0.0034722
        k(  189) = (   0.2985822   1.1574522   0.0000000), wk =   0.0034722
        k(  190) = (   0.2985822   1.2067055   0.0000000), wk =   0.0034722
        k(  191) = (   0.2985822   1.2559588   0.0000000), wk =   0.0034722
        k(  192) = (   0.2985822   1.3052121   0.0000000), wk =   0.0034722
        k(  193) = (   0.3412368   0.1970131   0.0000000), wk =   0.0034722
        k(  194) = (   0.3412368   0.2462664   0.0000000), wk =   0.0034722
        k(  195) = (   0.3412368   0.2955197   0.0000000), wk =   0.0034722
        k(  196) = (   0.3412368   0.3447730   0.0000000), wk =   0.0034722
        k(  197) = (   0.3412368   0.3940263   0.0000000), wk =   0.0034722
        k(  198) = (   0.3412368   0.4432796   0.0000000), wk =   0.0034722
        k(  199) = (   0.3412368   0.4925329   0.0000000), wk =   0.0034722
        k(  200) = (   0.3412368   0.5417861   0.0000000), wk =   0.0034722
        k(  201) = (   0.3412368   0.5910394   0.0000000), wk =   0.0034722
        k(  202) = (   0.3412368   0.6402927   0.0000000), wk =   0.0034722
        k(  203) = (   0.3412368   0.6895460   0.0000000), wk =   0.0034722
        k(  204) = (   0.3412368   0.7387993   0.0000000), wk =   0.0034722
        k(  205) = (   0.3412368   0.7880526   0.0000000), wk =   0.0034722
        k(  206) = (   0.3412368   0.8373059   0.0000000), wk =   0.0034722
        k(  207) = (   0.3412368   0.8865591   0.0000000), wk =   0.0034722
        k(  208) = (   0.3412368   0.9358124   0.0000000), wk =   0.0034722
        k(  209) = (   0.3412368   0.9850657   0.0000000), wk =   0.0034722
        k(  210) = (   0.3412368   1.0343190   0.0000000), wk =   0.0034722
        k(  211) = (   0.3412368   1.0835723   0.0000000), wk =   0.0034722
        k(  212) = (   0.3412368   1.1328256   0.0000000), wk =   0.0034722
        k(  213) = (   0.3412368   1.1820789   0.0000000), wk =   0.0034722
        k(  214) = (   0.3412368   1.2313321   0.0000000), wk =   0.0034722
        k(  215) = (   0.3412368   1.2805854   0.0000000), wk =   0.0034722
        k(  216) = (   0.3412368   1.3298387   0.0000000), wk =   0.0034722
        k(  217) = (   0.3838914   0.2216398   0.0000000), wk =   0.0034722
        k(  218) = (   0.3838914   0.2708931   0.0000000), wk =   0.0034722
        k(  219) = (   0.3838914   0.3201464   0.0000000), wk =   0.0034722
        k(  220) = (   0.3838914   0.3693996   0.0000000), wk =   0.0034722
        k(  221) = (   0.3838914   0.4186529   0.0000000), wk =   0.0034722
        k(  222) = (   0.3838914   0.4679062   0.0000000), wk =   0.0034722
        k(  223) = (   0.3838914   0.5171595   0.0000000), wk =   0.0034722
        k(  224) = (   0.3838914   0.5664128   0.0000000), wk =   0.0034722
        k(  225) = (   0.3838914   0.6156661   0.0000000), wk =   0.0034722
        k(  226) = (   0.3838914   0.6649194   0.0000000), wk =   0.0034722
        k(  227) = (   0.3838914   0.7141727   0.0000000), wk =   0.0034722
        k(  228) = (   0.3838914   0.7634259   0.0000000), wk =   0.0034722
        k(  229) = (   0.3838914   0.8126792   0.0000000), wk =   0.0034722
        k(  230) = (   0.3838914   0.8619325   0.0000000), wk =   0.0034722
        k(  231) = (   0.3838914   0.9111858   0.0000000), wk =   0.0034722
        k(  232) = (   0.3838914   0.9604391   0.0000000), wk =   0.0034722
        k(  233) = (   0.3838914   1.0096924   0.0000000), wk =   0.0034722
        k(  234) = (   0.3838914   1.0589456   0.0000000), wk =   0.0034722
        k(  235) = (   0.3838914   1.1081989   0.0000000), wk =   0.0034722
        k(  236) = (   0.3838914   1.1574522   0.0000000), wk =   0.0034722
        k(  237) = (   0.3838914   1.2067055   0.0000000), wk =   0.0034722
        k(  238) = (   0.3838914   1.2559588   0.0000000), wk =   0.0034722
        k(  239) = (   0.3838914   1.3052121   0.0000000), wk =   0.0034722
        k(  240) = (   0.3838914   1.3544654   0.0000000), wk =   0.0034722
        k(  241) = (   0.4265460   0.2462664   0.0000000), wk =   0.0034722
        k(  242) = (   0.4265460   0.2955197   0.0000000), wk =   0.0034722
        k(  243) = (   0.4265460   0.3447730   0.0000000), wk =   0.0034722
        k(  244) = (   0.4265460   0.3940263   0.0000000), wk =   0.0034722
        k(  245) = (   0.4265460   0.4432796   0.0000000), wk =   0.0034722
        k(  246) = (   0.4265460   0.4925329   0.0000000), wk =   0.0034722
        k(  247) = (   0.4265460   0.5417861   0.0000000), wk =   0.0034722
        k(  248) = (   0.4265460   0.5910394   0.0000000), wk =   0.0034722
        k(  249) = (   0.4265460   0.6402927   0.0000000), wk =   0.0034722
        k(  250) = (   0.4265460   0.6895460   0.0000000), wk =   0.0034722
        k(  251) = (   0.4265460   0.7387993   0.0000000), wk =   0.0034722
        k(  252) = (   0.4265460   0.7880526   0.0000000), wk =   0.0034722
        k(  253) = (   0.4265460   0.8373059   0.0000000), wk =   0.0034722
        k(  254) = (   0.4265460   0.8865592   0.0000000), wk =   0.0034722
        k(  255) = (   0.4265460   0.9358124   0.0000000), wk =   0.0034722
        k(  256) = (   0.4265460   0.9850657   0.0000000), wk =   0.0034722
        k(  257) = (   0.4265460   1.0343190   0.0000000), wk =   0.0034722
        k(  258) = (   0.4265460   1.0835723   0.0000000), wk =   0.0034722
        k(  259) = (   0.4265460   1.1328256   0.0000000), wk =   0.0034722
        k(  260) = (   0.4265460   1.1820789   0.0000000), wk =   0.0034722
        k(  261) = (   0.4265460   1.2313321   0.0000000), wk =   0.0034722
        k(  262) = (   0.4265460   1.2805854   0.0000000), wk =   0.0034722
        k(  263) = (   0.4265460   1.3298387   0.0000000), wk =   0.0034722
        k(  264) = (   0.4265460   1.3790920   0.0000000), wk =   0.0034722
        k(  265) = (   0.4692006   0.2708931   0.0000000), wk =   0.0034722
        k(  266) = (   0.4692006   0.3201464   0.0000000), wk =   0.0034722
        k(  267) = (   0.4692006   0.3693996   0.0000000), wk =   0.0034722
        k(  268) = (   0.4692006   0.4186529   0.0000000), wk =   0.0034722
        k(  269) = (   0.4692006   0.4679062   0.0000000), wk =   0.0034722
        k(  270) = (   0.4692006   0.5171595   0.0000000), wk =   0.0034722
        k(  271) = (   0.4692006   0.5664128   0.0000000), wk =   0.0034722
        k(  272) = (   0.4692006   0.6156661   0.0000000), wk =   0.0034722
        k(  273) = (   0.4692006   0.6649194   0.0000000), wk =   0.0034722
        k(  274) = (   0.4692006   0.7141726   0.0000000), wk =   0.0034722
        k(  275) = (   0.4692006   0.7634259   0.0000000), wk =   0.0034722
        k(  276) = (   0.4692006   0.8126792   0.0000000), wk =   0.0034722
        k(  277) = (   0.4692006   0.8619325   0.0000000), wk =   0.0034722
        k(  278) = (   0.4692006   0.9111858   0.0000000), wk =   0.0034722
        k(  279) = (   0.4692006   0.9604391   0.0000000), wk =   0.0034722
        k(  280) = (   0.4692006   1.0096924   0.0000000), wk =   0.0034722
        k(  281) = (   0.4692006   1.0589457   0.0000000), wk =   0.0034722
        k(  282) = (   0.4692006   1.1081989   0.0000000), wk =   0.0034722
        k(  283) = (   0.4692006   1.1574522   0.0000000), wk =   0.0034722
        k(  284) = (   0.4692006   1.2067055   0.0000000), wk =   0.0034722
        k(  285) = (   0.4692006   1.2559588   0.0000000), wk =   0.0034722
        k(  286) = (   0.4692006   1.3052121   0.0000000), wk =   0.0034722
        k(  287) = (   0.4692006   1.3544654   0.0000000), wk =   0.0034722
        k(  288) = (   0.4692006   1.4037186   0.0000000), wk =   0.0034722
        k(  289) = (   0.5118552   0.2955197   0.0000000), wk =   0.0034722
        k(  290) = (   0.5118552   0.3447730   0.0000000), wk =   0.0034722
        k(  291) = (   0.5118552   0.3940263   0.0000000), wk =   0.0034722
        k(  292) = (   0.5118552   0.4432796   0.0000000), wk =   0.0034722
        k(  293) = (   0.5118552   0.4925329   0.0000000), wk =   0.0034722
        k(  294) = (   0.5118552   0.5417861   0.0000000), wk =   0.0034722
        k(  295) = (   0.5118552   0.5910394   0.0000000), wk =   0.0034722
        k(  296) = (   0.5118552   0.6402927   0.0000000), wk =   0.0034722
        k(  297) = (   0.5118552   0.6895460   0.0000000), wk =   0.0034722
        k(  298) = (   0.5118552   0.7387993   0.0000000), wk =   0.0034722
        k(  299) = (   0.5118552   0.7880526   0.0000000), wk =   0.0034722
        k(  300) = (   0.5118552   0.8373059   0.0000000), wk =   0.0034722
        k(  301) = (   0.5118552   0.8865591   0.0000000), wk =   0.0034722
        k(  302) = (   0.5118552   0.9358124   0.0000000), wk =   0.0034722
        k(  303) = (   0.5118552   0.9850657   0.0000000), wk =   0.0034722
        k(  304) = (   0.5118552   1.0343190   0.0000000), wk =   0.0034722
        k(  305) = (   0.5118552   1.0835723   0.0000000), wk =   0.0034722
        k(  306) = (   0.5118552   1.1328256   0.0000000), wk =   0.0034722
        k(  307) = (   0.5118552   1.1820789   0.0000000), wk =   0.0034722
        k(  308) = (   0.5118552   1.2313322   0.0000000), wk =   0.0034722
        k(  309) = (   0.5118552   1.2805854   0.0000000), wk =   0.0034722
        k(  310) = (   0.5118552   1.3298387   0.0000000), wk =   0.0034722
        k(  311) = (   0.5118552   1.3790920   0.0000000), wk =   0.0034722
        k(  312) = (   0.5118552   1.4283453   0.0000000), wk =   0.0034722
        k(  313) = (   0.5545098   0.3201464   0.0000000), wk =   0.0034722
        k(  314) = (   0.5545098   0.3693997   0.0000000), wk =   0.0034722
        k(  315) = (   0.5545098   0.4186529   0.0000000), wk =   0.0034722
        k(  316) = (   0.5545098   0.4679062   0.0000000), wk =   0.0034722
        k(  317) = (   0.5545098   0.5171595   0.0000000), wk =   0.0034722
        k(  318) = (   0.5545098   0.5664128   0.0000000), wk =   0.0034722
        k(  319) = (   0.5545098   0.6156661   0.0000000), wk =   0.0034722
        k(  320) = (   0.5545098   0.6649194   0.0000000), wk =   0.0034722
        k(  321) = (   0.5545098   0.7141726   0.0000000), wk =   0.0034722
        k(  322) = (   0.5545098   0.7634259   0.0000000), wk =   0.0034722
        k(  323) = (   0.5545098   0.8126792   0.0000000), wk =   0.0034722
        k(  324) = (   0.5545098   0.8619325   0.0000000), wk =   0.0034722
        k(  325) = (   0.5545098   0.9111858   0.0000000), wk =   0.0034722
        k(  326) = (   0.5545098   0.9604391   0.0000000), wk =   0.0034722
        k(  327) = (   0.5545098   1.0096924   0.0000000), wk =   0.0034722
        k(  328) = (   0.5545098   1.0589457   0.0000000), wk =   0.0034722
        k(  329) = (   0.5545098   1.1081989   0.0000000), wk =   0.0034722
        k(  330) = (   0.5545098   1.1574522   0.0000000), wk =   0.0034722
        k(  331) = (   0.5545098   1.2067055   0.0000000), wk =   0.0034722
        k(  332) = (   0.5545098   1.2559588   0.0000000), wk =   0.0034722
        k(  333) = (   0.5545098   1.3052121   0.0000000), wk =   0.0034722
        k(  334) = (   0.5545098   1.3544654   0.0000000), wk =   0.0034722
        k(  335) = (   0.5545098   1.4037187   0.0000000), wk =   0.0034722
        k(  336) = (   0.5545098   1.4529719   0.0000000), wk =   0.0034722
        k(  337) = (   0.5971644   0.3447730   0.0000000), wk =   0.0034722
        k(  338) = (   0.5971644   0.3940263   0.0000000), wk =   0.0034722
        k(  339) = (   0.5971644   0.4432796   0.0000000), wk =   0.0034722
        k(  340) = (   0.5971644   0.4925329   0.0000000), wk =   0.0034722
        k(  341) = (   0.5971644   0.5417861   0.0000000), wk =   0.0034722
        k(  342) = (   0.5971644   0.5910394   0.0000000), wk =   0.0034722
        k(  343) = (   0.5971644   0.6402927   0.0000000), wk =   0.0034722
        k(  344) = (   0.5971644   0.6895460   0.0000000), wk =   0.0034722
        k(  345) = (   0.5971644   0.7387993   0.0000000), wk =   0.0034722
        k(  346) = (   0.5971644   0.7880526   0.0000000), wk =   0.0034722
        k(  347) = (   0.5971644   0.8373059   0.0000000), wk =   0.0034722
        k(  348) = (   0.5971644   0.8865591   0.0000000), wk =   0.0034722
        k(  349) = (   0.5971644   0.9358124   0.0000000), wk =   0.0034722
        k(  350) = (   0.5971644   0.9850657   0.0000000), wk =   0.0034722
        k(  351) = (   0.5971644   1.0343190   0.0000000), wk =   0.0034722
        k(  352) = (   0.5971644   1.0835723   0.0000000), wk =   0.0034722
        k(  353) = (   0.5971644   1.1328256   0.0000000), wk =   0.0034722
        k(  354) = (   0.5971644   1.1820789   0.0000000), wk =   0.0034722
        k(  355) = (   0.5971644   1.2313321   0.0000000), wk =   0.0034722
        k(  356) = (   0.5971644   1.2805854   0.0000000), wk =   0.0034722
        k(  357) = (   0.5971644   1.3298387   0.0000000), wk =   0.0034722
        k(  358) = (   0.5971644   1.3790920   0.0000000), wk =   0.0034722
        k(  359) = (   0.5971644   1.4283453   0.0000000), wk =   0.0034722
        k(  360) = (   0.5971644   1.4775986   0.0000000), wk =   0.0034722
        k(  361) = (   0.6398190   0.3693996   0.0000000), wk =   0.0034722
        k(  362) = (   0.6398190   0.4186529   0.0000000), wk =   0.0034722
        k(  363) = (   0.6398190   0.4679062   0.0000000), wk =   0.0034722
        k(  364) = (   0.6398190   0.5171595   0.0000000), wk =   0.0034722
        k(  365) = (   0.6398190   0.5664128   0.0000000), wk =   0.0034722
        k(  366) = (   0.6398190   0.6156661   0.0000000), wk =   0.0034722
        k(  367) = (   0.6398190   0.6649194   0.0000000), wk =   0.0034722
        k(  368) = (   0.6398190   0.7141727   0.0000000), wk =   0.0034722
        k(  369) = (   0.6398190   0.7634259   0.0000000), wk =   0.0034722
        k(  370) = (   0.6398190   0.8126792   0.0000000), wk =   0.0034722
        k(  371) = (   0.6398190   0.8619325   0.0000000), wk =   0.0034722
        k(  372) = (   0.6398190   0.9111858   0.0000000), wk =   0.0034722
        k(  373) = (   0.6398190   0.9604391   0.0000000), wk =   0.0034722
        k(  374) = (   0.6398190   1.0096924   0.0000000), wk =   0.0034722
        k(  375) = (   0.6398190   1.0589456   0.0000000), wk =   0.0034722
        k(  376) = (   0.6398190   1.1081989   0.0000000), wk =   0.0034722
        k(  377) = (   0.6398190   1.1574522   0.0000000), wk =   0.0034722
        k(  378) = (   0.6398190   1.2067055   0.0000000), wk =   0.0034722
        k(  379) = (   0.6398190   1.2559588   0.0000000), wk =   0.0034722
        k(  380) = (   0.6398190   1.3052121   0.0000000), wk =   0.0034722
        k(  381) = (   0.6398190   1.3544654   0.0000000), wk =   0.0034722
        k(  382) = (   0.6398190   1.4037187   0.0000000), wk =   0.0034722
        k(  383) = (   0.6398190   1.4529719   0.0000000), wk =   0.0034722
        k(  384) = (   0.6398190   1.5022252   0.0000000), wk =   0.0034722
        k(  385) = (   0.6824736   0.3940263   0.0000000), wk =   0.0034722
        k(  386) = (   0.6824736   0.4432796   0.0000000), wk =   0.0034722
        k(  387) = (   0.6824736   0.4925329   0.0000000), wk =   0.0034722
        k(  388) = (   0.6824736   0.5417861   0.0000000), wk =   0.0034722
        k(  389) = (   0.6824736   0.5910394   0.0000000), wk =   0.0034722
        k(  390) = (   0.6824736   0.6402927   0.0000000), wk =   0.0034722
        k(  391) = (   0.6824736   0.6895460   0.0000000), wk =   0.0034722
        k(  392) = (   0.6824736   0.7387993   0.0000000), wk =   0.0034722
        k(  393) = (   0.6824736   0.7880526   0.0000000), wk =   0.0034722
        k(  394) = (   0.6824736   0.8373059   0.0000000), wk =   0.0034722
        k(  395) = (   0.6824736   0.8865592   0.0000000), wk =   0.0034722
        k(  396) = (   0.6824736   0.9358124   0.0000000), wk =   0.0034722
        k(  397) = (   0.6824736   0.9850657   0.0000000), wk =   0.0034722
        k(  398) = (   0.6824736   1.0343190   0.0000000), wk =   0.0034722
        k(  399) = (   0.6824736   1.0835723   0.0000000), wk =   0.0034722
        k(  400) = (   0.6824736   1.1328256   0.0000000), wk =   0.0034722
        k(  401) = (   0.6824736   1.1820789   0.0000000), wk =   0.0034722
        k(  402) = (   0.6824736   1.2313321   0.0000000), wk =   0.0034722
        k(  403) = (   0.6824736   1.2805854   0.0000000), wk =   0.0034722
        k(  404) = (   0.6824736   1.3298387   0.0000000), wk =   0.0034722
        k(  405) = (   0.6824736   1.3790920   0.0000000), wk =   0.0034722
        k(  406) = (   0.6824736   1.4283453   0.0000000), wk =   0.0034722
        k(  407) = (   0.6824736   1.4775986   0.0000000), wk =   0.0034722
        k(  408) = (   0.6824736   1.5268519   0.0000000), wk =   0.0034722
        k(  409) = (   0.7251281   0.4186529   0.0000000), wk =   0.0034722
        k(  410) = (   0.7251281   0.4679062   0.0000000), wk =   0.0034722
        k(  411) = (   0.7251281   0.5171595   0.0000000), wk =   0.0034722
        k(  412) = (   0.7251281   0.5664128   0.0000000), wk =   0.0034722
        k(  413) = (   0.7251281   0.6156661   0.0000000), wk =   0.0034722
        k(  414) = (   0.7251281   0.6649194   0.0000000), wk =   0.0034722
        k(  415) = (   0.7251281   0.7141726   0.0000000), wk =   0.0034722
        k(  416) = (   0.7251281   0.7634259   0.0000000), wk =   0.0034722
        k(  417) = (   0.7251281   0.8126792   0.0000000), wk =   0.0034722
        k(  418) = (   0.7251281   0.8619325   0.0000000), wk =   0.0034722
        k(  419) = (   0.7251281   0.9111858   0.0000000), wk =   0.0034722
        k(  420) = (   0.7251281   0.9604391   0.0000000), wk =   0.0034722
        k(  421) = (   0.7251281   1.0096924   0.0000000), wk =   0.0034722
        k(  422) = (   0.7251281   1.0589457   0.0000000), wk =   0.0034722
        k(  423) = (   0.7251281   1.1081989   0.0000000), wk =   0.0034722
        k(  424) = (   0.7251281   1.1574522   0.0000000), wk =   0.0034722
        k(  425) = (   0.7251281   1.2067055   0.0000000), wk =   0.0034722
        k(  426) = (   0.7251281   1.2559588   0.0000000), wk =   0.0034722
        k(  427) = (   0.7251281   1.3052121   0.0000000), wk =   0.0034722
        k(  428) = (   0.7251281   1.3544654   0.0000000), wk =   0.0034722
        k(  429) = (   0.7251281   1.4037186   0.0000000), wk =   0.0034722
        k(  430) = (   0.7251281   1.4529719   0.0000000), wk =   0.0034722
        k(  431) = (   0.7251281   1.5022252   0.0000000), wk =   0.0034722
        k(  432) = (   0.7251281   1.5514785   0.0000000), wk =   0.0034722
        k(  433) = (   0.7677827   0.4432796   0.0000000), wk =   0.0034722
        k(  434) = (   0.7677827   0.4925329   0.0000000), wk =   0.0034722
        k(  435) = (   0.7677827   0.5417861   0.0000000), wk =   0.0034722
        k(  436) = (   0.7677827   0.5910394   0.0000000), wk =   0.0034722
        k(  437) = (   0.7677827   0.6402927   0.0000000), wk =   0.0034722
        k(  438) = (   0.7677827   0.6895460   0.0000000), wk =   0.0034722
        k(  439) = (   0.7677827   0.7387993   0.0000000), wk =   0.0034722
        k(  440) = (   0.7677827   0.7880526   0.0000000), wk =   0.0034722
        k(  441) = (   0.7677827   0.8373059   0.0000000), wk =   0.0034722
        k(  442) = (   0.7677827   0.8865591   0.0000000), wk =   0.0034722
        k(  443) = (   0.7677827   0.9358124   0.0000000), wk =   0.0034722
        k(  444) = (   0.7677827   0.9850657   0.0000000), wk =   0.0034722
        k(  445) = (   0.7677827   1.0343190   0.0000000), wk =   0.0034722
        k(  446) = (   0.7677827   1.0835723   0.0000000), wk =   0.0034722
        k(  447) = (   0.7677827   1.1328256   0.0000000), wk =   0.0034722
        k(  448) = (   0.7677827   1.1820789   0.0000000), wk =   0.0034722
        k(  449) = (   0.7677827   1.2313322   0.0000000), wk =   0.0034722
        k(  450) = (   0.7677827   1.2805854   0.0000000), wk =   0.0034722
        k(  451) = (   0.7677827   1.3298387   0.0000000), wk =   0.0034722
        k(  452) = (   0.7677827   1.3790920   0.0000000), wk =   0.0034722
        k(  453) = (   0.7677827   1.4283453   0.0000000), wk =   0.0034722
        k(  454) = (   0.7677827   1.4775986   0.0000000), wk =   0.0034722
        k(  455) = (   0.7677827   1.5268519   0.0000000), wk =   0.0034722
        k(  456) = (   0.7677827   1.5761052   0.0000000), wk =   0.0034722
        k(  457) = (   0.8104373   0.4679062   0.0000000), wk =   0.0034722
        k(  458) = (   0.8104373   0.5171595   0.0000000), wk =   0.0034722
        k(  459) = (   0.8104373   0.5664128   0.0000000), wk =   0.0034722
        k(  460) = (   0.8104373   0.6156661   0.0000000), wk =   0.0034722
        k(  461) = (   0.8104373   0.6649194   0.0000000), wk =   0.0034722
        k(  462) = (   0.8104373   0.7141726   0.0000000), wk =   0.0034722
        k(  463) = (   0.8104373   0.7634259   0.0000000), wk =   0.0034722
        k(  464) = (   0.8104373   0.8126792   0.0000000), wk =   0.0034722
        k(  465) = (   0.8104373   0.8619325   0.0000000), wk =   0.0034722
        k(  466) = (   0.8104373   0.9111858   0.0000000), wk =   0.0034722
        k(  467) = (   0.8104373   0.9604391   0.0000000), wk =   0.0034722
        k(  468) = (   0.8104373   1.0096924   0.0000000), wk =   0.0034722
        k(  469) = (   0.8104373   1.0589457   0.0000000), wk =   0.0034722
        k(  470) = (   0.8104373   1.1081989   0.0000000), wk =   0.0034722
        k(  471) = (   0.8104373   1.1574522   0.0000000), wk =   0.0034722
        k(  472) = (   0.8104373   1.2067055   0.0000000), wk =   0.0034722
        k(  473) = (   0.8104373   1.2559588   0.0000000), wk =   0.0034722
        k(  474) = (   0.8104373   1.3052121   0.0000000), wk =   0.0034722
        k(  475) = (   0.8104373   1.3544654   0.0000000), wk =   0.0034722
        k(  476) = (   0.8104373   1.4037187   0.0000000), wk =   0.0034722
        k(  477) = (   0.8104373   1.4529719   0.0000000), wk =   0.0034722
        k(  478) = (   0.8104373   1.5022252   0.0000000), wk =   0.0034722
        k(  479) = (   0.8104373   1.5514785   0.0000000), wk =   0.0034722
        k(  480) = (   0.8104373   1.6007318   0.0000000), wk =   0.0034722
        k(  481) = (   0.8530919   0.4925329   0.0000000), wk =   0.0034722
        k(  482) = (   0.8530919   0.5417861   0.0000000), wk =   0.0034722
        k(  483) = (   0.8530919   0.5910394   0.0000000), wk =   0.0034722
        k(  484) = (   0.8530919   0.6402927   0.0000000), wk =   0.0034722
        k(  485) = (   0.8530919   0.6895460   0.0000000), wk =   0.0034722
        k(  486) = (   0.8530919   0.7387993   0.0000000), wk =   0.0034722
        k(  487) = (   0.8530919   0.7880526   0.0000000), wk =   0.0034722
        k(  488) = (   0.8530919   0.8373059   0.0000000), wk =   0.0034722
        k(  489) = (   0.8530919   0.8865591   0.0000000), wk =   0.0034722
        k(  490) = (   0.8530919   0.9358124   0.0000000), wk =   0.0034722
        k(  491) = (   0.8530919   0.9850657   0.0000000), wk =   0.0034722
        k(  492) = (   0.8530919   1.0343190   0.0000000), wk =   0.0034722
        k(  493) = (   0.8530919   1.0835723   0.0000000), wk =   0.0034722
        k(  494) = (   0.8530919   1.1328256   0.0000000), wk =   0.0034722
        k(  495) = (   0.8530919   1.1820789   0.0000000), wk =   0.0034722
        k(  496) = (   0.8530919   1.2313321   0.0000000), wk =   0.0034722
        k(  497) = (   0.8530919   1.2805854   0.0000000), wk =   0.0034722
        k(  498) = (   0.8530919   1.3298387   0.0000000), wk =   0.0034722
        k(  499) = (   0.8530919   1.3790920   0.0000000), wk =   0.0034722
        k(  500) = (   0.8530919   1.4283453   0.0000000), wk =   0.0034722
        k(  501) = (   0.8530919   1.4775986   0.0000000), wk =   0.0034722
        k(  502) = (   0.8530919   1.5268519   0.0000000), wk =   0.0034722
        k(  503) = (   0.8530919   1.5761052   0.0000000), wk =   0.0034722
        k(  504) = (   0.8530919   1.6253584   0.0000000), wk =   0.0034722
        k(  505) = (   0.8957465   0.5171595   0.0000000), wk =   0.0034722
        k(  506) = (   0.8957465   0.5664128   0.0000000), wk =   0.0034722
        k(  507) = (   0.8957465   0.6156661   0.0000000), wk =   0.0034722
        k(  508) = (   0.8957465   0.6649194   0.0000000), wk =   0.0034722
        k(  509) = (   0.8957465   0.7141727   0.0000000), wk =   0.0034722
        k(  510) = (   0.8957465   0.7634259   0.0000000), wk =   0.0034722
        k(  511) = (   0.8957465   0.8126792   0.0000000), wk =   0.0034722
        k(  512) = (   0.8957465   0.8619325   0.0000000), wk =   0.0034722
        k(  513) = (   0.8957465   0.9111858   0.0000000), wk =   0.0034722
        k(  514) = (   0.8957465   0.9604391   0.0000000), wk =   0.0034722
        k(  515) = (   0.8957465   1.0096924   0.0000000), wk =   0.0034722
        k(  516) = (   0.8957465   1.0589456   0.0000000), wk =   0.0034722
        k(  517) = (   0.8957465   1.1081989   0.0000000), wk =   0.0034722
        k(  518) = (   0.8957465   1.1574522   0.0000000), wk =   0.0034722
        k(  519) = (   0.8957465   1.2067055   0.0000000), wk =   0.0034722
        k(  520) = (   0.8957465   1.2559588   0.0000000), wk =   0.0034722
        k(  521) = (   0.8957465   1.3052121   0.0000000), wk =   0.0034722
        k(  522) = (   0.8957465   1.3544654   0.0000000), wk =   0.0034722
        k(  523) = (   0.8957465   1.4037187   0.0000000), wk =   0.0034722
        k(  524) = (   0.8957465   1.4529719   0.0000000), wk =   0.0034722
        k(  525) = (   0.8957465   1.5022252   0.0000000), wk =   0.0034722
        k(  526) = (   0.8957465   1.5514785   0.0000000), wk =   0.0034722
        k(  527) = (   0.8957465   1.6007318   0.0000000), wk =   0.0034722
        k(  528) = (   0.8957465   1.6499851   0.0000000), wk =   0.0034722
        k(  529) = (   0.9384011   0.5417861   0.0000000), wk =   0.0034722
        k(  530) = (   0.9384011   0.5910394   0.0000000), wk =   0.0034722
        k(  531) = (   0.9384011   0.6402927   0.0000000), wk =   0.0034722
        k(  532) = (   0.9384011   0.6895460   0.0000000), wk =   0.0034722
        k(  533) = (   0.9384011   0.7387993   0.0000000), wk =   0.0034722
        k(  534) = (   0.9384011   0.7880526   0.0000000), wk =   0.0034722
        k(  535) = (   0.9384011   0.8373059   0.0000000), wk =   0.0034722
        k(  536) = (   0.9384011   0.8865592   0.0000000), wk =   0.0034722
        k(  537) = (   0.9384011   0.9358124   0.0000000), wk =   0.0034722
        k(  538) = (   0.9384011   0.9850657   0.0000000), wk =   0.0034722
        k(  539) = (   0.9384011   1.0343190   0.0000000), wk =   0.0034722
        k(  540) = (   0.9384011   1.0835723   0.0000000), wk =   0.0034722
        k(  541) = (   0.9384011   1.1328256   0.0000000), wk =   0.0034722
        k(  542) = (   0.9384011   1.1820789   0.0000000), wk =   0.0034722
        k(  543) = (   0.9384011   1.2313321   0.0000000), wk =   0.0034722
        k(  544) = (   0.9384011   1.2805854   0.0000000), wk =   0.0034722
        k(  545) = (   0.9384011   1.3298387   0.0000000), wk =   0.0034722
        k(  546) = (   0.9384011   1.3790920   0.0000000), wk =   0.0034722
        k(  547) = (   0.9384011   1.4283453   0.0000000), wk =   0.0034722
        k(  548) = (   0.9384011   1.4775986   0.0000000), wk =   0.0034722
        k(  549) = (   0.9384011   1.5268519   0.0000000), wk =   0.0034722
        k(  550) = (   0.9384011   1.5761052   0.0000000), wk =   0.0034722
        k(  551) = (   0.9384011   1.6253584   0.0000000), wk =   0.0034722
        k(  552) = (   0.9384011   1.6746117   0.0000000), wk =   0.0034722
        k(  553) = (   0.9810557   0.5664128   0.0000000), wk =   0.0034722
        k(  554) = (   0.9810557   0.6156661   0.0000000), wk =   0.0034722
        k(  555) = (   0.9810557   0.6649194   0.0000000), wk =   0.0034722
        k(  556) = (   0.9810557   0.7141726   0.0000000), wk =   0.0034722
        k(  557) = (   0.9810557   0.7634259   0.0000000), wk =   0.0034722
        k(  558) = (   0.9810557   0.8126792   0.0000000), wk =   0.0034722
        k(  559) = (   0.9810557   0.8619325   0.0000000), wk =   0.0034722
        k(  560) = (   0.9810557   0.9111858   0.0000000), wk =   0.0034722
        k(  561) = (   0.9810557   0.9604391   0.0000000), wk =   0.0034722
        k(  562) = (   0.9810557   1.0096924   0.0000000), wk =   0.0034722
        k(  563) = (   0.9810557   1.0589457   0.0000000), wk =   0.0034722
        k(  564) = (   0.9810557   1.1081989   0.0000000), wk =   0.0034722
        k(  565) = (   0.9810557   1.1574522   0.0000000), wk =   0.0034722
        k(  566) = (   0.9810557   1.2067055   0.0000000), wk =   0.0034722
        k(  567) = (   0.9810557   1.2559588   0.0000000), wk =   0.0034722
        k(  568) = (   0.9810557   1.3052121   0.0000000), wk =   0.0034722
        k(  569) = (   0.9810557   1.3544654   0.0000000), wk =   0.0034722
        k(  570) = (   0.9810557   1.4037186   0.0000000), wk =   0.0034722
        k(  571) = (   0.9810557   1.4529719   0.0000000), wk =   0.0034722
        k(  572) = (   0.9810557   1.5022252   0.0000000), wk =   0.0034722
        k(  573) = (   0.9810557   1.5514785   0.0000000), wk =   0.0034722
        k(  574) = (   0.9810557   1.6007318   0.0000000), wk =   0.0034722
        k(  575) = (   0.9810557   1.6499851   0.0000000), wk =   0.0034722
        k(  576) = (   0.9810557   1.6992384   0.0000000), wk =   0.0034722

                       cryst. coord.
        k(    1) = (   0.0000000   0.0000000   0.0000000), wk =   0.0034722
        k(    2) = (   0.0000000   0.0416667   0.0000000), wk =   0.0034722
        k(    3) = (   0.0000000   0.0833333   0.0000000), wk =   0.0034722
        k(    4) = (   0.0000000   0.1250000   0.0000000), wk =   0.0034722
        k(    5) = (   0.0000000   0.1666667   0.0000000), wk =   0.0034722
        k(    6) = (   0.0000000   0.2083333   0.0000000), wk =   0.0034722
        k(    7) = (   0.0000000   0.2500000   0.0000000), wk =   0.0034722
        k(    8) = (   0.0000000   0.2916667   0.0000000), wk =   0.0034722
        k(    9) = (   0.0000000   0.3333333   0.0000000), wk =   0.0034722
        k(   10) = (   0.0000000   0.3750000   0.0000000), wk =   0.0034722
        k(   11) = (   0.0000000   0.4166667   0.0000000), wk =   0.0034722
        k(   12) = (   0.0000000   0.4583333   0.0000000), wk =   0.0034722
        k(   13) = (   0.0000000   0.5000000   0.0000000), wk =   0.0034722
        k(   14) = (   0.0000000   0.5416667   0.0000000), wk =   0.0034722
        k(   15) = (   0.0000000   0.5833333   0.0000000), wk =   0.0034722
        k(   16) = (   0.0000000   0.6250000   0.0000000), wk =   0.0034722
        k(   17) = (   0.0000000   0.6666667   0.0000000), wk =   0.0034722
        k(   18) = (   0.0000000   0.7083333   0.0000000), wk =   0.0034722
        k(   19) = (   0.0000000   0.7500000   0.0000000), wk =   0.0034722
        k(   20) = (   0.0000000   0.7916667   0.0000000), wk =   0.0034722
        k(   21) = (   0.0000000   0.8333333   0.0000000), wk =   0.0034722
        k(   22) = (   0.0000000   0.8750000   0.0000000), wk =   0.0034722
        k(   23) = (   0.0000000   0.9166667   0.0000000), wk =   0.0034722
        k(   24) = (   0.0000000   0.9583333   0.0000000), wk =   0.0034722
        k(   25) = (   0.0416667   0.0000000   0.0000000), wk =   0.0034722
        k(   26) = (   0.0416667   0.0416667   0.0000000), wk =   0.0034722
        k(   27) = (   0.0416667   0.0833333   0.0000000), wk =   0.0034722
        k(   28) = (   0.0416667   0.1250000   0.0000000), wk =   0.0034722
        k(   29) = (   0.0416667   0.1666667   0.0000000), wk =   0.0034722
        k(   30) = (   0.0416667   0.2083333   0.0000000), wk =   0.0034722
        k(   31) = (   0.0416667   0.2500000   0.0000000), wk =   0.0034722
        k(   32) = (   0.0416667   0.2916667   0.0000000), wk =   0.0034722
        k(   33) = (   0.0416667   0.3333333   0.0000000), wk =   0.0034722
        k(   34) = (   0.0416667   0.3750000   0.0000000), wk =   0.0034722
        k(   35) = (   0.0416667   0.4166667   0.0000000), wk =   0.0034722
        k(   36) = (   0.0416667   0.4583333   0.0000000), wk =   0.0034722
        k(   37) = (   0.0416667   0.5000000   0.0000000), wk =   0.0034722
        k(   38) = (   0.0416667   0.5416667   0.0000000), wk =   0.0034722
        k(   39) = (   0.0416667   0.5833333   0.0000000), wk =   0.0034722
        k(   40) = (   0.0416667   0.6250000   0.0000000), wk =   0.0034722
        k(   41) = (   0.0416667   0.6666667   0.0000000), wk =   0.0034722
        k(   42) = (   0.0416667   0.7083333   0.0000000), wk =   0.0034722
        k(   43) = (   0.0416667   0.7500000   0.0000000), wk =   0.0034722
        k(   44) = (   0.0416667   0.7916667   0.0000000), wk =   0.0034722
        k(   45) = (   0.0416667   0.8333333   0.0000000), wk =   0.0034722
        k(   46) = (   0.0416667   0.8750000   0.0000000), wk =   0.0034722
        k(   47) = (   0.0416667   0.9166667   0.0000000), wk =   0.0034722
        k(   48) = (   0.0416667   0.9583333   0.0000000), wk =   0.0034722
        k(   49) = (   0.0833333   0.0000000   0.0000000), wk =   0.0034722
        k(   50) = (   0.0833333   0.0416667   0.0000000), wk =   0.0034722
        k(   51) = (   0.0833333   0.0833333   0.0000000), wk =   0.0034722
        k(   52) = (   0.0833333   0.1250000   0.0000000), wk =   0.0034722
        k(   53) = (   0.0833333   0.1666667   0.0000000), wk =   0.0034722
        k(   54) = (   0.0833333   0.2083333   0.0000000), wk =   0.0034722
        k(   55) = (   0.0833333   0.2500000   0.0000000), wk =   0.0034722
        k(   56) = (   0.0833333   0.2916667   0.0000000), wk =   0.0034722
        k(   57) = (   0.0833333   0.3333333   0.0000000), wk =   0.0034722
        k(   58) = (   0.0833333   0.3750000   0.0000000), wk =   0.0034722
        k(   59) = (   0.0833333   0.4166667   0.0000000), wk =   0.0034722
        k(   60) = (   0.0833333   0.4583333   0.0000000), wk =   0.0034722
        k(   61) = (   0.0833333   0.5000000   0.0000000), wk =   0.0034722
        k(   62) = (   0.0833333   0.5416667   0.0000000), wk =   0.0034722
        k(   63) = (   0.0833333   0.5833333   0.0000000), wk =   0.0034722
        k(   64) = (   0.0833333   0.6250000   0.0000000), wk =   0.0034722
        k(   65) = (   0.0833333   0.6666667   0.0000000), wk =   0.0034722
        k(   66) = (   0.0833333   0.7083333   0.0000000), wk =   0.0034722
        k(   67) = (   0.0833333   0.7500000   0.0000000), wk =   0.0034722
        k(   68) = (   0.0833333   0.7916667   0.0000000), wk =   0.0034722
        k(   69) = (   0.0833333   0.8333333   0.0000000), wk =   0.0034722
        k(   70) = (   0.0833333   0.8750000   0.0000000), wk =   0.0034722
        k(   71) = (   0.0833333   0.9166667   0.0000000), wk =   0.0034722
        k(   72) = (   0.0833333   0.9583333   0.0000000), wk =   0.0034722
        k(   73) = (   0.1250000   0.0000000   0.0000000), wk =   0.0034722
        k(   74) = (   0.1250000   0.0416667   0.0000000), wk =   0.0034722
        k(   75) = (   0.1250000   0.0833333   0.0000000), wk =   0.0034722
        k(   76) = (   0.1250000   0.1250000   0.0000000), wk =   0.0034722
        k(   77) = (   0.1250000   0.1666667   0.0000000), wk =   0.0034722
        k(   78) = (   0.1250000   0.2083333   0.0000000), wk =   0.0034722
        k(   79) = (   0.1250000   0.2500000   0.0000000), wk =   0.0034722
        k(   80) = (   0.1250000   0.2916667   0.0000000), wk =   0.0034722
        k(   81) = (   0.1250000   0.3333333   0.0000000), wk =   0.0034722
        k(   82) = (   0.1250000   0.3750000   0.0000000), wk =   0.0034722
        k(   83) = (   0.1250000   0.4166667   0.0000000), wk =   0.0034722
        k(   84) = (   0.1250000   0.4583333   0.0000000), wk =   0.0034722
        k(   85) = (   0.1250000   0.5000000   0.0000000), wk =   0.0034722
        k(   86) = (   0.1250000   0.5416667   0.0000000), wk =   0.0034722
        k(   87) = (   0.1250000   0.5833333   0.0000000), wk =   0.0034722
        k(   88) = (   0.1250000   0.6250000   0.0000000), wk =   0.0034722
        k(   89) = (   0.1250000   0.6666667   0.0000000), wk =   0.0034722
        k(   90) = (   0.1250000   0.7083333   0.0000000), wk =   0.0034722
        k(   91) = (   0.1250000   0.7500000   0.0000000), wk =   0.0034722
        k(   92) = (   0.1250000   0.7916667   0.0000000), wk =   0.0034722
        k(   93) = (   0.1250000   0.8333333   0.0000000), wk =   0.0034722
        k(   94) = (   0.1250000   0.8750000   0.0000000), wk =   0.0034722
        k(   95) = (   0.1250000   0.9166667   0.0000000), wk =   0.0034722
        k(   96) = (   0.1250000   0.9583333   0.0000000), wk =   0.0034722
        k(   97) = (   0.1666667   0.0000000   0.0000000), wk =   0.0034722
        k(   98) = (   0.1666667   0.0416667   0.0000000), wk =   0.0034722
        k(   99) = (   0.1666667   0.0833333   0.0000000), wk =   0.0034722
        k(  100) = (   0.1666667   0.1250000   0.0000000), wk =   0.0034722
        k(  101) = (   0.1666667   0.1666667   0.0000000), wk =   0.0034722
        k(  102) = (   0.1666667   0.2083333   0.0000000), wk =   0.0034722
        k(  103) = (   0.1666667   0.2500000   0.0000000), wk =   0.0034722
        k(  104) = (   0.1666667   0.2916667   0.0000000), wk =   0.0034722
        k(  105) = (   0.1666667   0.3333333   0.0000000), wk =   0.0034722
        k(  106) = (   0.1666667   0.3750000   0.0000000), wk =   0.0034722
        k(  107) = (   0.1666667   0.4166667   0.0000000), wk =   0.0034722
        k(  108) = (   0.1666667   0.4583333   0.0000000), wk =   0.0034722
        k(  109) = (   0.1666667   0.5000000   0.0000000), wk =   0.0034722
        k(  110) = (   0.1666667   0.5416667   0.0000000), wk =   0.0034722
        k(  111) = (   0.1666667   0.5833333   0.0000000), wk =   0.0034722
        k(  112) = (   0.1666667   0.6250000   0.0000000), wk =   0.0034722
        k(  113) = (   0.1666667   0.6666667   0.0000000), wk =   0.0034722
        k(  114) = (   0.1666667   0.7083333   0.0000000), wk =   0.0034722
        k(  115) = (   0.1666667   0.7500000   0.0000000), wk =   0.0034722
        k(  116) = (   0.1666667   0.7916667   0.0000000), wk =   0.0034722
        k(  117) = (   0.1666667   0.8333333   0.0000000), wk =   0.0034722
        k(  118) = (   0.1666667   0.8750000   0.0000000), wk =   0.0034722
        k(  119) = (   0.1666667   0.9166667   0.0000000), wk =   0.0034722
        k(  120) = (   0.1666667   0.9583333   0.0000000), wk =   0.0034722
        k(  121) = (   0.2083333   0.0000000   0.0000000), wk =   0.0034722
        k(  122) = (   0.2083333   0.0416667   0.0000000), wk =   0.0034722
        k(  123) = (   0.2083333   0.0833333   0.0000000), wk =   0.0034722
        k(  124) = (   0.2083333   0.1250000   0.0000000), wk =   0.0034722
        k(  125) = (   0.2083333   0.1666667   0.0000000), wk =   0.0034722
        k(  126) = (   0.2083333   0.2083333   0.0000000), wk =   0.0034722
        k(  127) = (   0.2083333   0.2500000   0.0000000), wk =   0.0034722
        k(  128) = (   0.2083333   0.2916667   0.0000000), wk =   0.0034722
        k(  129) = (   0.2083333   0.3333333   0.0000000), wk =   0.0034722
        k(  130) = (   0.2083333   0.3750000   0.0000000), wk =   0.0034722
        k(  131) = (   0.2083333   0.4166667   0.0000000), wk =   0.0034722
        k(  132) = (   0.2083333   0.4583333   0.0000000), wk =   0.0034722
        k(  133) = (   0.2083333   0.5000000   0.0000000), wk =   0.0034722
        k(  134) = (   0.2083333   0.5416667   0.0000000), wk =   0.0034722
        k(  135) = (   0.2083333   0.5833333   0.0000000), wk =   0.0034722
        k(  136) = (   0.2083333   0.6250000   0.0000000), wk =   0.0034722
        k(  137) = (   0.2083333   0.6666667   0.0000000), wk =   0.0034722
        k(  138) = (   0.2083333   0.7083333   0.0000000), wk =   0.0034722
        k(  139) = (   0.2083333   0.7500000   0.0000000), wk =   0.0034722
        k(  140) = (   0.2083333   0.7916667   0.0000000), wk =   0.0034722
        k(  141) = (   0.2083333   0.8333333   0.0000000), wk =   0.0034722
        k(  142) = (   0.2083333   0.8750000   0.0000000), wk =   0.0034722
        k(  143) = (   0.2083333   0.9166667   0.0000000), wk =   0.0034722
        k(  144) = (   0.2083333   0.9583333   0.0000000), wk =   0.0034722
        k(  145) = (   0.2500000   0.0000000   0.0000000), wk =   0.0034722
        k(  146) = (   0.2500000   0.0416667   0.0000000), wk =   0.0034722
        k(  147) = (   0.2500000   0.0833333   0.0000000), wk =   0.0034722
        k(  148) = (   0.2500000   0.1250000   0.0000000), wk =   0.0034722
        k(  149) = (   0.2500000   0.1666667   0.0000000), wk =   0.0034722
        k(  150) = (   0.2500000   0.2083333   0.0000000), wk =   0.0034722
        k(  151) = (   0.2500000   0.2500000   0.0000000), wk =   0.0034722
        k(  152) = (   0.2500000   0.2916667   0.0000000), wk =   0.0034722
        k(  153) = (   0.2500000   0.3333333   0.0000000), wk =   0.0034722
        k(  154) = (   0.2500000   0.3750000   0.0000000), wk =   0.0034722
        k(  155) = (   0.2500000   0.4166667   0.0000000), wk =   0.0034722
        k(  156) = (   0.2500000   0.4583333   0.0000000), wk =   0.0034722
        k(  157) = (   0.2500000   0.5000000   0.0000000), wk =   0.0034722
        k(  158) = (   0.2500000   0.5416667   0.0000000), wk =   0.0034722
        k(  159) = (   0.2500000   0.5833333   0.0000000), wk =   0.0034722
        k(  160) = (   0.2500000   0.6250000   0.0000000), wk =   0.0034722
        k(  161) = (   0.2500000   0.6666667   0.0000000), wk =   0.0034722
        k(  162) = (   0.2500000   0.7083333   0.0000000), wk =   0.0034722
        k(  163) = (   0.2500000   0.7500000   0.0000000), wk =   0.0034722
        k(  164) = (   0.2500000   0.7916667   0.0000000), wk =   0.0034722
        k(  165) = (   0.2500000   0.8333333   0.0000000), wk =   0.0034722
        k(  166) = (   0.2500000   0.8750000   0.0000000), wk =   0.0034722
        k(  167) = (   0.2500000   0.9166667   0.0000000), wk =   0.0034722
        k(  168) = (   0.2500000   0.9583333   0.0000000), wk =   0.0034722
        k(  169) = (   0.2916667   0.0000000   0.0000000), wk =   0.0034722
        k(  170) = (   0.2916667   0.0416667   0.0000000), wk =   0.0034722
        k(  171) = (   0.2916667   0.0833333   0.0000000), wk =   0.0034722
        k(  172) = (   0.2916667   0.1250000   0.0000000), wk =   0.0034722
        k(  173) = (   0.2916667   0.1666667   0.0000000), wk =   0.0034722
        k(  174) = (   0.2916667   0.2083333   0.0000000), wk =   0.0034722
        k(  175) = (   0.2916667   0.2500000   0.0000000), wk =   0.0034722
        k(  176) = (   0.2916667   0.2916667   0.0000000), wk =   0.0034722
        k(  177) = (   0.2916667   0.3333333   0.0000000), wk =   0.0034722
        k(  178) = (   0.2916667   0.3750000   0.0000000), wk =   0.0034722
        k(  179) = (   0.2916667   0.4166667   0.0000000), wk =   0.0034722
        k(  180) = (   0.2916667   0.4583333   0.0000000), wk =   0.0034722
        k(  181) = (   0.2916667   0.5000000   0.0000000), wk =   0.0034722
        k(  182) = (   0.2916667   0.5416667   0.0000000), wk =   0.0034722
        k(  183) = (   0.2916667   0.5833333   0.0000000), wk =   0.0034722
        k(  184) = (   0.2916667   0.6250000   0.0000000), wk =   0.0034722
        k(  185) = (   0.2916667   0.6666667   0.0000000), wk =   0.0034722
        k(  186) = (   0.2916667   0.7083333   0.0000000), wk =   0.0034722
        k(  187) = (   0.2916667   0.7500000   0.0000000), wk =   0.0034722
        k(  188) = (   0.2916667   0.7916667   0.0000000), wk =   0.0034722
        k(  189) = (   0.2916667   0.8333333   0.0000000), wk =   0.0034722
        k(  190) = (   0.2916667   0.8750000   0.0000000), wk =   0.0034722
        k(  191) = (   0.2916667   0.9166667   0.0000000), wk =   0.0034722
        k(  192) = (   0.2916667   0.9583333   0.0000000), wk =   0.0034722
        k(  193) = (   0.3333333   0.0000000   0.0000000), wk =   0.0034722
        k(  194) = (   0.3333333   0.0416667   0.0000000), wk =   0.0034722
        k(  195) = (   0.3333333   0.0833333   0.0000000), wk =   0.0034722
        k(  196) = (   0.3333333   0.1250000   0.0000000), wk =   0.0034722
        k(  197) = (   0.3333333   0.1666667   0.0000000), wk =   0.0034722
        k(  198) = (   0.3333333   0.2083333   0.0000000), wk =   0.0034722
        k(  199) = (   0.3333333   0.2500000   0.0000000), wk =   0.0034722
        k(  200) = (   0.3333333   0.2916667   0.0000000), wk =   0.0034722
        k(  201) = (   0.3333333   0.3333333   0.0000000), wk =   0.0034722
        k(  202) = (   0.3333333   0.3750000   0.0000000), wk =   0.0034722
        k(  203) = (   0.3333333   0.4166667   0.0000000), wk =   0.0034722
        k(  204) = (   0.3333333   0.4583333   0.0000000), wk =   0.0034722
        k(  205) = (   0.3333333   0.5000000   0.0000000), wk =   0.0034722
        k(  206) = (   0.3333333   0.5416667   0.0000000), wk =   0.0034722
        k(  207) = (   0.3333333   0.5833333   0.0000000), wk =   0.0034722
        k(  208) = (   0.3333333   0.6250000   0.0000000), wk =   0.0034722
        k(  209) = (   0.3333333   0.6666667   0.0000000), wk =   0.0034722
        k(  210) = (   0.3333333   0.7083333   0.0000000), wk =   0.0034722
        k(  211) = (   0.3333333   0.7500000   0.0000000), wk =   0.0034722
        k(  212) = (   0.3333333   0.7916667   0.0000000), wk =   0.0034722
        k(  213) = (   0.3333333   0.8333333   0.0000000), wk =   0.0034722
        k(  214) = (   0.3333333   0.8750000   0.0000000), wk =   0.0034722
        k(  215) = (   0.3333333   0.9166667   0.0000000), wk =   0.0034722
        k(  216) = (   0.3333333   0.9583333   0.0000000), wk =   0.0034722
        k(  217) = (   0.3750000   0.0000000   0.0000000), wk =   0.0034722
        k(  218) = (   0.3750000   0.0416667   0.0000000), wk =   0.0034722
        k(  219) = (   0.3750000   0.0833333   0.0000000), wk =   0.0034722
        k(  220) = (   0.3750000   0.1250000   0.0000000), wk =   0.0034722
        k(  221) = (   0.3750000   0.1666667   0.0000000), wk =   0.0034722
        k(  222) = (   0.3750000   0.2083333   0.0000000), wk =   0.0034722
        k(  223) = (   0.3750000   0.2500000   0.0000000), wk =   0.0034722
        k(  224) = (   0.3750000   0.2916667   0.0000000), wk =   0.0034722
        k(  225) = (   0.3750000   0.3333333   0.0000000), wk =   0.0034722
        k(  226) = (   0.3750000   0.3750000   0.0000000), wk =   0.0034722
        k(  227) = (   0.3750000   0.4166667   0.0000000), wk =   0.0034722
        k(  228) = (   0.3750000   0.4583333   0.0000000), wk =   0.0034722
        k(  229) = (   0.3750000   0.5000000   0.0000000), wk =   0.0034722
        k(  230) = (   0.3750000   0.5416667   0.0000000), wk =   0.0034722
        k(  231) = (   0.3750000   0.5833333   0.0000000), wk =   0.0034722
        k(  232) = (   0.3750000   0.6250000   0.0000000), wk =   0.0034722
        k(  233) = (   0.3750000   0.6666667   0.0000000), wk =   0.0034722
        k(  234) = (   0.3750000   0.7083333   0.0000000), wk =   0.0034722
        k(  235) = (   0.3750000   0.7500000   0.0000000), wk =   0.0034722
        k(  236) = (   0.3750000   0.7916667   0.0000000), wk =   0.0034722
        k(  237) = (   0.3750000   0.8333333   0.0000000), wk =   0.0034722
        k(  238) = (   0.3750000   0.8750000   0.0000000), wk =   0.0034722
        k(  239) = (   0.3750000   0.9166667   0.0000000), wk =   0.0034722
        k(  240) = (   0.3750000   0.9583333   0.0000000), wk =   0.0034722
        k(  241) = (   0.4166667   0.0000000   0.0000000), wk =   0.0034722
        k(  242) = (   0.4166667   0.0416667   0.0000000), wk =   0.0034722
        k(  243) = (   0.4166667   0.0833333   0.0000000), wk =   0.0034722
        k(  244) = (   0.4166667   0.1250000   0.0000000), wk =   0.0034722
        k(  245) = (   0.4166667   0.1666667   0.0000000), wk =   0.0034722
        k(  246) = (   0.4166667   0.2083333   0.0000000), wk =   0.0034722
        k(  247) = (   0.4166667   0.2500000   0.0000000), wk =   0.0034722
        k(  248) = (   0.4166667   0.2916667   0.0000000), wk =   0.0034722
        k(  249) = (   0.4166667   0.3333333   0.0000000), wk =   0.0034722
        k(  250) = (   0.4166667   0.3750000   0.0000000), wk =   0.0034722
        k(  251) = (   0.4166667   0.4166667   0.0000000), wk =   0.0034722
        k(  252) = (   0.4166667   0.4583333   0.0000000), wk =   0.0034722
        k(  253) = (   0.4166667   0.5000000   0.0000000), wk =   0.0034722
        k(  254) = (   0.4166667   0.5416667   0.0000000), wk =   0.0034722
        k(  255) = (   0.4166667   0.5833333   0.0000000), wk =   0.0034722
        k(  256) = (   0.4166667   0.6250000   0.0000000), wk =   0.0034722
        k(  257) = (   0.4166667   0.6666667   0.0000000), wk =   0.0034722
        k(  258) = (   0.4166667   0.7083333   0.0000000), wk =   0.0034722
        k(  259) = (   0.4166667   0.7500000   0.0000000), wk =   0.0034722
        k(  260) = (   0.4166667   0.7916667   0.0000000), wk =   0.0034722
        k(  261) = (   0.4166667   0.8333333   0.0000000), wk =   0.0034722
        k(  262) = (   0.4166667   0.8750000   0.0000000), wk =   0.0034722
        k(  263) = (   0.4166667   0.9166667   0.0000000), wk =   0.0034722
        k(  264) = (   0.4166667   0.9583333   0.0000000), wk =   0.0034722
        k(  265) = (   0.4583333   0.0000000   0.0000000), wk =   0.0034722
        k(  266) = (   0.4583333   0.0416667   0.0000000), wk =   0.0034722
        k(  267) = (   0.4583333   0.0833333   0.0000000), wk =   0.0034722
        k(  268) = (   0.4583333   0.1250000   0.0000000), wk =   0.0034722
        k(  269) = (   0.4583333   0.1666667   0.0000000), wk =   0.0034722
        k(  270) = (   0.4583333   0.2083333   0.0000000), wk =   0.0034722
        k(  271) = (   0.4583333   0.2500000   0.0000000), wk =   0.0034722
        k(  272) = (   0.4583333   0.2916667   0.0000000), wk =   0.0034722
        k(  273) = (   0.4583333   0.3333333   0.0000000), wk =   0.0034722
        k(  274) = (   0.4583333   0.3750000   0.0000000), wk =   0.0034722
        k(  275) = (   0.4583333   0.4166667   0.0000000), wk =   0.0034722
        k(  276) = (   0.4583333   0.4583333   0.0000000), wk =   0.0034722
        k(  277) = (   0.4583333   0.5000000   0.0000000), wk =   0.0034722
        k(  278) = (   0.4583333   0.5416667   0.0000000), wk =   0.0034722
        k(  279) = (   0.4583333   0.5833333   0.0000000), wk =   0.0034722
        k(  280) = (   0.4583333   0.6250000   0.0000000), wk =   0.0034722
        k(  281) = (   0.4583333   0.6666667   0.0000000), wk =   0.0034722
        k(  282) = (   0.4583333   0.7083333   0.0000000), wk =   0.0034722
        k(  283) = (   0.4583333   0.7500000   0.0000000), wk =   0.0034722
        k(  284) = (   0.4583333   0.7916667   0.0000000), wk =   0.0034722
        k(  285) = (   0.4583333   0.8333333   0.0000000), wk =   0.0034722
        k(  286) = (   0.4583333   0.8750000   0.0000000), wk =   0.0034722
        k(  287) = (   0.4583333   0.9166667   0.0000000), wk =   0.0034722
        k(  288) = (   0.4583333   0.9583333   0.0000000), wk =   0.0034722
        k(  289) = (   0.5000000   0.0000000   0.0000000), wk =   0.0034722
        k(  290) = (   0.5000000   0.0416667   0.0000000), wk =   0.0034722
        k(  291) = (   0.5000000   0.0833333   0.0000000), wk =   0.0034722
        k(  292) = (   0.5000000   0.1250000   0.0000000), wk =   0.0034722
        k(  293) = (   0.5000000   0.1666667   0.0000000), wk =   0.0034722
        k(  294) = (   0.5000000   0.2083333   0.0000000), wk =   0.0034722
        k(  295) = (   0.5000000   0.2500000   0.0000000), wk =   0.0034722
        k(  296) = (   0.5000000   0.2916667   0.0000000), wk =   0.0034722
        k(  297) = (   0.5000000   0.3333333   0.0000000), wk =   0.0034722
        k(  298) = (   0.5000000   0.3750000   0.0000000), wk =   0.0034722
        k(  299) = (   0.5000000   0.4166667   0.0000000), wk =   0.0034722
        k(  300) = (   0.5000000   0.4583333   0.0000000), wk =   0.0034722
        k(  301) = (   0.5000000   0.5000000   0.0000000), wk =   0.0034722
        k(  302) = (   0.5000000   0.5416667   0.0000000), wk =   0.0034722
        k(  303) = (   0.5000000   0.5833333   0.0000000), wk =   0.0034722
        k(  304) = (   0.5000000   0.6250000   0.0000000), wk =   0.0034722
        k(  305) = (   0.5000000   0.6666667   0.0000000), wk =   0.0034722
        k(  306) = (   0.5000000   0.7083333   0.0000000), wk =   0.0034722
        k(  307) = (   0.5000000   0.7500000   0.0000000), wk =   0.0034722
        k(  308) = (   0.5000000   0.7916667   0.0000000), wk =   0.0034722
        k(  309) = (   0.5000000   0.8333333   0.0000000), wk =   0.0034722
        k(  310) = (   0.5000000   0.8750000   0.0000000), wk =   0.0034722
        k(  311) = (   0.5000000   0.9166667   0.0000000), wk =   0.0034722
        k(  312) = (   0.5000000   0.9583333   0.0000000), wk =   0.0034722
        k(  313) = (   0.5416667   0.0000000   0.0000000), wk =   0.0034722
        k(  314) = (   0.5416667   0.0416667   0.0000000), wk =   0.0034722
        k(  315) = (   0.5416667   0.0833333   0.0000000), wk =   0.0034722
        k(  316) = (   0.5416667   0.1250000   0.0000000), wk =   0.0034722
        k(  317) = (   0.5416667   0.1666667   0.0000000), wk =   0.0034722
        k(  318) = (   0.5416667   0.2083333   0.0000000), wk =   0.0034722
        k(  319) = (   0.5416667   0.2500000   0.0000000), wk =   0.0034722
        k(  320) = (   0.5416667   0.2916667   0.0000000), wk =   0.0034722
        k(  321) = (   0.5416667   0.3333333   0.0000000), wk =   0.0034722
        k(  322) = (   0.5416667   0.3750000   0.0000000), wk =   0.0034722
        k(  323) = (   0.5416667   0.4166667   0.0000000), wk =   0.0034722
        k(  324) = (   0.5416667   0.4583333   0.0000000), wk =   0.0034722
        k(  325) = (   0.5416667   0.5000000   0.0000000), wk =   0.0034722
        k(  326) = (   0.5416667   0.5416667   0.0000000), wk =   0.0034722
        k(  327) = (   0.5416667   0.5833333   0.0000000), wk =   0.0034722
        k(  328) = (   0.5416667   0.6250000   0.0000000), wk =   0.0034722
        k(  329) = (   0.5416667   0.6666667   0.0000000), wk =   0.0034722
        k(  330) = (   0.5416667   0.7083333   0.0000000), wk =   0.0034722
[...]
    -0.2754   3.6803   3.8800   4.4592   5.2206   5.5082   5.7961   6.2878
     7.2739   7.5050   8.2651   8.5927

     occupation numbers 
     1.0000   1.0000   1.0000   1.0000   1.0000   1.0000   1.0000   1.0000
     1.0000   1.0000   1.0000   1.0000   1.0000   1.0000   1.0000   0.0000
     0.0000   0.0000   0.0000   0.0000   0.0000   0.0000   0.0000   0.0000
     0.0000   0.0000   0.0000   0.0000

          k = 0.9384 1.5761 0.0000 ( 16196 PWs)   bands (ev):

   -87.7486 -53.8707 -53.8676 -53.8515 -18.6977 -17.6627  -7.5709  -6.9775
    -6.3005  -5.6745  -4.9554  -4.5543  -1.9611  -1.8516  -1.3915  -0.4328
    -0.2324   3.3954   3.6630   4.1729   5.0879   5.2872   5.4912   6.1488
     7.1288   7.3765   8.1930   8.4862

     occupation numbers 
     1.0000   1.0000   1.0000   1.0000   1.0000   1.0000   1.0000   1.0000
     1.0000   1.0000   1.0000   1.0000   1.0000   1.0000   1.0000   0.0000
     0.0000   0.0000   0.0000   0.0000   0.0000   0.0000   0.0000   0.0000
     0.0000   0.0000   0.0000   0.0000

          k = 0.9384 1.6254 0.0000 ( 16181 PWs)   bands (ev):

   -87.7487 -53.8693 -53.8672 -53.8518 -18.7920 -17.6870  -7.6493  -6.7967
    -6.3056  -5.3123  -4.7830  -4.5896  -1.9624  -1.9569  -1.4298  -0.3591
    -0.1636   3.1473   3.4843   3.9393   4.8145   5.0086   5.2299   6.2584
     6.9653   7.3087   7.8375   8.7476

     occupation numbers 
     1.0000   1.0000   1.0000   1.0000   1.0000   1.0000   1.0000   1.0000
     1.0000   1.0000   1.0000   1.0000   1.0000   1.0000   1.0000   0.0000
     0.0000   0.0000   0.0000   0.0000   0.0000   0.0000   0.0000   0.0000
     0.0000   0.0000   0.0000   0.0000

          k = 0.9384 1.6746 0.0000 ( 16163 PWs)   bands (ev):

   -87.7487 -53.8681 -53.8669 -53.8519 -18.8621 -17.7061  -7.7148  -6.6370
    -6.3108  -4.9952  -4.6688  -4.6215  -2.0454  -1.9834  -1.4702  -0.2654
    -0.0962   2.9517   3.3510   3.7660   4.4793   4.8620   5.0148   6.3593
     6.9008   7.2767   7.5241   9.0252

     occupation numbers 
     1.0000   1.0000   1.0000   1.0000   1.0000   1.0000   1.0000   1.0000
     1.0000   1.0000   1.0000   1.0000   1.0000   1.0000   1.0000   0.0000
     0.0000   0.0000   0.0000   0.0000   0.0000   0.0000   0.0000   0.0000
     0.0000   0.0000   0.0000   0.0000

          k = 0.9811 0.5664 0.0000 ( 16135 PWs)   bands (ev):

   -87.7488 -53.8666 -53.8665 -53.8521 -18.9492 -17.7311  -7.8016  -6.3812
    -6.3251  -4.8126  -4.5020  -4.4381  -2.1192  -2.1062  -1.5318  -0.0575
    -0.0224   2.6893   3.1836   3.5514   3.9750   4.6985   4.7383   6.3449
     7.0348   7.1443   7.2088   9.1348

     occupation numbers 
     1.0000   1.0000   1.0000   1.0000   1.0000   1.0000   1.0000   1.0000
     1.0000   1.0000   1.0000   1.0000   1.0000   1.0000   1.0000   0.0000
     0.0000   0.0000   0.0000   0.0000   0.0000   0.0000   0.0000   0.0000
     0.0000   0.0000   0.0000   0.0000

          k = 0.9811 0.6157 0.0000 ( 16135 PWs)   bands (ev):

   -87.7488 -53.8666 -53.8665 -53.8521 -18.9492 -17.7311  -7.8016  -6.3812
    -6.3251  -4.8126  -4.5020  -4.4381  -2.1192  -2.1062  -1.5318  -0.0575
    -0.0224   2.6893   3.1836   3.5514   3.9750   4.6985   4.7383   6.3449
     7.0348   7.1443   7.2088   9.1348

     occupation numbers 
     1.0000   1.0000   1.0000   1.0000   1.0000   1.0000   1.0000   1.0000
     1.0000   1.0000   1.0000   1.0000   1.0000   1.0000   1.0000   0.0000
     0.0000   0.0000   0.0000   0.0000   0.0000   0.0000   0.0000   0.0000
     0.0000   0.0000   0.0000   0.0000

          k = 0.9811 0.6649 0.0000 ( 16153 PWs)   bands (ev):

   -87.7488 -53.8672 -53.8666 -53.8521 -18.9198 -17.7225  -7.7717  -6.4764
    -6.3200  -4.7508  -4.6820  -4.5057  -2.0839  -2.0637  -1.5097  -0.1389
    -0.0488   2.7811   3.2407   3.6238   4.1588   4.7529   4.8323   6.3696
     6.9578   7.2063   7.2985   9.1930

     occupation numbers 
     1.0000   1.0000   1.0000   1.0000   1.0000   1.0000   1.0000   1.0000
     1.0000   1.0000   1.0000   1.0000   1.0000   1.0000   1.0000   0.0000
     0.0000   0.0000   0.0000   0.0000   0.0000   0.0000   0.0000   0.0000
     0.0000   0.0000   0.0000   0.0000

          k = 0.9811 0.7142 0.0000 ( 16163 PWs)   bands (ev):

   -87.7487 -53.8681 -53.8669 -53.8519 -18.8621 -17.7061  -7.7148  -6.6370
    -6.3108  -4.9952  -4.6688  -4.6215  -2.0454  -1.9834  -1.4702  -0.2654
    -0.0962   2.9517   3.3510   3.7660   4.4793   4.8620   5.0148   6.3593
     6.9008   7.2767   7.5241   9.0252

     occupation numbers 
     1.0000   1.0000   1.0000   1.0000   1.0000   1.0000   1.0000   1.0000
     1.0000   1.0000   1.0000   1.0000   1.0000   1.0000   1.0000   0.0000
     0.0000   0.0000   0.0000   0.0000   0.0000   0.0000   0.0000   0.0000
     0.0000   0.0000   0.0000   0.0000

          k = 0.9811 0.7634 0.0000 ( 16186 PWs)   bands (ev):

   -87.7487 -53.8695 -53.8672 -53.8517 -18.7783 -17.6834  -7.6373  -6.8313
    -6.2975  -5.3815  -4.7889  -4.5844  -2.0327  -1.8749  -1.4242  -0.3915
    -0.1494   3.1815   3.5097   3.9722   4.8306   5.0398   5.2666   6.2745
     6.9853   7.3782   7.8313   8.7177

     occupation numbers 
     1.0000   1.0000   1.0000   1.0000   1.0000   1.0000   1.0000   1.0000
     1.0000   1.0000   1.0000   1.0000   1.0000   1.0000   1.0000   0.0000
     0.0000   0.0000   0.0000   0.0000   0.0000   0.0000   0.0000   0.0000
     0.0000   0.0000   0.0000   0.0000

          k = 0.9811 0.8127 0.0000 ( 16190 PWs)   bands (ev):

   -87.7486 -53.8712 -53.8677 -53.8515 -18.6716 -17.6566  -7.5535  -7.0385
    -6.2806  -5.7803  -4.9600  -4.5592  -2.0404  -1.7671  -1.3855  -0.4766
    -0.1928   3.4521   3.7102   4.2345   5.0265   5.2973   5.5540   6.3014
     7.1437   7.5219   8.1658   8.5029

     occupation numbers 
     1.0000   1.0000   1.0000   1.0000   1.0000   1.0000   1.0000   1.0000
     1.0000   1.0000   1.0000   1.0000   1.0000   1.0000   1.0000   0.0000
     0.0000   0.0000   0.0000   0.0000   0.0000   0.0000   0.0000   0.0000
     0.0000   0.0000   0.0000   0.0000

          k = 0.9811 0.8619 0.0000 ( 16206 PWs)   bands (ev):

   -87.7485 -53.8731 -53.8681 -53.8512 -18.5464 -17.6285  -7.4982  -7.2430
    -6.2604  -6.1257  -5.1334  -4.5979  -2.0614  -1.6783  -1.3641  -0.4968
    -0.2146   3.7379   3.9480   4.5434   5.0335   5.5324   5.8352   6.5681
     7.2655   7.7245   8.4164   8.5193

     occupation numbers 
     1.0000   1.0000   1.0000   1.0000   1.0000   1.0000   1.0000   1.0000
     1.0000   1.0000   1.0000   1.0000   1.0000   1.0000   1.0000   0.0000
     0.0000   0.0000   0.0000   0.0000   0.0000   0.0000   0.0000   0.0000
     0.0000   0.0000   0.0000   0.0000

          k = 0.9811 0.9112 0.0000 ( 16228 PWs)   bands (ev):

   -87.7484 -53.8750 -53.8687 -53.8509 -18.4085 -17.6028  -7.5852  -7.3762
    -6.3419  -6.2368  -5.2997  -4.6999  -2.0890  -1.6173  -1.3636  -0.4509
    -0.2099   3.9597   4.2457   4.8643   5.0181   5.7545   6.0122   6.8904
     7.4514   7.9161   8.4972   8.6495

     occupation numbers 
     1.0000   1.0000   1.0000   1.0000   1.0000   1.0000   1.0000   1.0000
     1.0000   1.0000   1.0000   1.0000   1.0000   1.0000   1.0000   0.0000
     0.0000   0.0000   0.0000   0.0000   0.0000   0.0000   0.0000   0.0000
     0.0000   0.0000   0.0000   0.0000

          k = 0.9811 0.9604 0.0000 ( 16239 PWs)   bands (ev):

   -87.7483 -53.8769 -53.8692 -53.8507 -18.2644 -17.5833  -7.8289  -7.4434
    -6.3889  -6.2090  -5.4532  -4.8504  -2.1184  -1.5839  -1.3807  -0.3576
    -0.1822   4.0291   4.6189   5.0125   5.2988   5.8171   6.2145   7.1743
     7.7100   8.1286   8.3874   8.5821

     occupation numbers 
     1.0000   1.0000   1.0000   1.0000   1.0000   1.0000   1.0000   1.0000
     1.0000   1.0000   1.0000   1.0000   1.0000   1.0000   1.0000   0.0000
     0.0000   0.0000   0.0000   0.0000   0.0000   0.0000   0.0000   0.0000
     0.0000   0.0000   0.0000   0.0000

          k = 0.9811 1.0097 0.0000 ( 16229 PWs)   bands (ev):

   -87.7482 -53.8785 -53.8696 -53.8504 -18.1218 -17.5742  -8.0967  -7.5194
    -6.3135  -6.1743  -5.5900  -5.0288  -2.1465  -1.5715  -1.4091  -0.2462
    -0.1384   3.9985   4.9816   5.1405   5.5763   5.9521   6.5189   7.3655
     8.0062   8.1770   8.2690   8.6604

     occupation numbers 
     1.0000   1.0000   1.0000   1.0000   1.0000   1.0000   1.0000   1.0000
     1.0000   1.0000   1.0000   1.0000   1.0000   1.0000   1.0000   0.0000
     0.0000   0.0000   0.0000   0.0000   0.0000   0.0000   0.0000   0.0000
     0.0000   0.0000   0.0000   0.0000

          k = 0.9811 1.0589 0.0000 ( 16241 PWs)   bands (ev):

   -87.7481 -53.8799 -53.8699 -53.8502 -17.9891 -17.5792  -8.3329  -7.5863
    -6.1942  -6.1208  -5.7065  -5.2160  -2.1711  -1.5710  -1.4417  -0.1540
    -0.0782   3.9606   4.9280   5.5178   5.8231   6.3638   6.8579   7.4070
     8.0127   8.2208   8.4731   8.7764

     occupation numbers 
     1.0000   1.0000   1.0000   1.0000   1.0000   1.0000   1.0000   1.0000
     1.0000   1.0000   1.0000   1.0000   1.0000   1.0000   1.0000   0.0000
     0.0000   0.0000   0.0000   0.0000   0.0000   0.0000   0.0000   0.0000
     0.0000   0.0000   0.0000   0.0000

          k = 0.9811 1.1082 0.0000 ( 16268 PWs)   bands (ev):

   -87.7480 -53.8809 -53.8702 -53.8501 -17.8760 -17.5998  -8.5057  -7.6326
    -6.1164  -6.0140  -5.7891  -5.3974  -2.1899  -1.5745  -1.4706  -0.1051
    -0.0082   3.9524   4.7570   5.9060   6.1064   6.8213   7.2114   7.3881
     7.9360   8.2333   8.6687   8.9925

     occupation numbers 
     1.0000   1.0000   1.0000   1.0000   1.0000   1.0000   1.0000   1.0000
     1.0000   1.0000   1.0000   1.0000   1.0000   1.0000   1.0000   0.0000
     0.0000   0.0000   0.0000   0.0000   0.0000   0.0000   0.0000   0.0000
     0.0000   0.0000   0.0000   0.0000

          k = 0.9811 1.1575 0.0000 ( 16269 PWs)   bands (ev):

   -87.7480 -53.8813 -53.8703 -53.8500 -17.7993 -17.6279  -8.5965  -7.6557
    -6.0702  -5.9580  -5.7735  -5.5530  -2.2002  -1.5771  -1.4878  -0.0843
     0.0356   3.9636   4.6410   6.1568   6.2901   7.1479   7.3469   7.7161
     7.9929   8.0530   8.3679   8.5260

     occupation numbers 
     1.0000   1.0000   1.0000   1.0000   1.0000   1.0000   1.0000   1.0000
     1.0000   1.0000   1.0000   1.0000   1.0000   1.0000   1.0000   0.0000
     0.0000   0.0000   0.0000   0.0000   0.0000   0.0000   0.0000   0.0000
     0.0000   0.0000   0.0000   0.0000

          k = 0.9811 1.2067 0.0000 ( 16269 PWs)   bands (ev):

   -87.7480 -53.8813 -53.8703 -53.8500 -17.7993 -17.6279  -8.5965  -7.6557
    -6.0702  -5.9580  -5.7735  -5.5530  -2.2002  -1.5771  -1.4878  -0.0843
     0.0356   3.9636   4.6410   6.1568   6.2901   7.1479   7.3469   7.7161
     7.9929   8.0530   8.3679   8.5260

     occupation numbers 
     1.0000   1.0000   1.0000   1.0000   1.0000   1.0000   1.0000   1.0000
     1.0000   1.0000   1.0000   1.0000   1.0000   1.0000   1.0000   0.0000
     0.0000   0.0000   0.0000   0.0000   0.0000   0.0000   0.0000   0.0000
     0.0000   0.0000   0.0000   0.0000

          k = 0.9811 1.2560 0.0000 ( 16268 PWs)   bands (ev):

   -87.7480 -53.8809 -53.8702 -53.8501 -17.8760 -17.5998  -8.5057  -7.6326
    -6.1164  -6.0140  -5.7891  -5.3974  -2.1899  -1.5745  -1.4706  -0.1051
    -0.0082   3.9524   4.7570   5.9060   6.1064   6.8213   7.2114   7.3881
     7.9360   8.2333   8.6687   8.9925

     occupation numbers 
     1.0000   1.0000   1.0000   1.0000   1.0000   1.0000   1.0000   1.0000
     1.0000   1.0000   1.0000   1.0000   1.0000   1.0000   1.0000   0.0000
     0.0000   0.0000   0.0000   0.0000   0.0000   0.0000   0.0000   0.0000
     0.0000   0.0000   0.0000   0.0000

          k = 0.9811 1.3052 0.0000 ( 16241 PWs)   bands (ev):

   -87.7481 -53.8799 -53.8699 -53.8502 -17.9891 -17.5792  -8.3329  -7.5863
    -6.1942  -6.1208  -5.7065  -5.2160  -2.1711  -1.5710  -1.4417  -0.1540
    -0.0782   3.9606   4.9280   5.5178   5.8231   6.3638   6.8579   7.4070
     8.0127   8.2208   8.4731   8.7764

     occupation numbers 
     1.0000   1.0000   1.0000   1.0000   1.0000   1.0000   1.0000   1.0000
     1.0000   1.0000   1.0000   1.0000   1.0000   1.0000   1.0000   0.0000
     0.0000   0.0000   0.0000   0.0000   0.0000   0.0000   0.0000   0.0000
     0.0000   0.0000   0.0000   0.0000

          k = 0.9811 1.3545 0.0000 ( 16229 PWs)   bands (ev):

   -87.7482 -53.8785 -53.8696 -53.8504 -18.1218 -17.5742  -8.0967  -7.5194
    -6.3135  -6.1743  -5.5900  -5.0288  -2.1465  -1.5715  -1.4091  -0.2462
    -0.1384   3.9985   4.9816   5.1405   5.5763   5.9521   6.5189   7.3655
     8.0062   8.1770   8.2690   8.6604

     occupation numbers 
     1.0000   1.0000   1.0000   1.0000   1.0000   1.0000   1.0000   1.0000
     1.0000   1.0000   1.0000   1.0000   1.0000   1.0000   1.0000   0.0000
     0.0000   0.0000   0.0000   0.0000   0.0000   0.0000   0.0000   0.0000
     0.0000   0.0000   0.0000   0.0000

          k = 0.9811 1.4037 0.0000 ( 16239 PWs)   bands (ev):

   -87.7483 -53.8769 -53.8692 -53.8507 -18.2644 -17.5833  -7.8289  -7.4434
    -6.3889  -6.2090  -5.4532  -4.8504  -2.1184  -1.5839  -1.3807  -0.3576
    -0.1822   4.0291   4.6189   5.0125   5.2988   5.8171   6.2145   7.1743
     7.7100   8.1286   8.3874   8.5821

     occupation numbers 
     1.0000   1.0000   1.0000   1.0000   1.0000   1.0000   1.0000   1.0000
     1.0000   1.0000   1.0000   1.0000   1.0000   1.0000   1.0000   0.0000
     0.0000   0.0000   0.0000   0.0000   0.0000   0.0000   0.0000   0.0000
     0.0000   0.0000   0.0000   0.0000

          k = 0.9811 1.4530 0.0000 ( 16228 PWs)   bands (ev):

   -87.7484 -53.8750 -53.8687 -53.8509 -18.4085 -17.6028  -7.5852  -7.3762
    -6.3419  -6.2368  -5.2997  -4.6999  -2.0890  -1.6173  -1.3636  -0.4509
    -0.2099   3.9597   4.2457   4.8643   5.0181   5.7545   6.0122   6.8904
     7.4514   7.9161   8.4972   8.6495

     occupation numbers 
     1.0000   1.0000   1.0000   1.0000   1.0000   1.0000   1.0000   1.0000
     1.0000   1.0000   1.0000   1.0000   1.0000   1.0000   1.0000   0.0000
     0.0000   0.0000   0.0000   0.0000   0.0000   0.0000   0.0000   0.0000
     0.0000   0.0000   0.0000   0.0000

          k = 0.9811 1.5022 0.0000 ( 16206 PWs)   bands (ev):

   -87.7485 -53.8731 -53.8681 -53.8512 -18.5464 -17.6285  -7.4982  -7.2430
    -6.2604  -6.1257  -5.1334  -4.5979  -2.0614  -1.6783  -1.3641  -0.4968
    -0.2146   3.7379   3.9480   4.5434   5.0335   5.5324   5.8352   6.5681
     7.2655   7.7245   8.4164   8.5193

     occupation numbers 
     1.0000   1.0000   1.0000   1.0000   1.0000   1.0000   1.0000   1.0000
     1.0000   1.0000   1.0000   1.0000   1.0000   1.0000   1.0000   0.0000
     0.0000   0.0000   0.0000   0.0000   0.0000   0.0000   0.0000   0.0000
     0.0000   0.0000   0.0000   0.0000

          k = 0.9811 1.5515 0.0000 ( 16190 PWs)   bands (ev):

   -87.7486 -53.8712 -53.8677 -53.8515 -18.6716 -17.6566  -7.5535  -7.0385
    -6.2806  -5.7803  -4.9600  -4.5592  -2.0404  -1.7671  -1.3855  -0.4766
    -0.1928   3.4521   3.7102   4.2345   5.0265   5.2973   5.5540   6.3014
     7.1437   7.5219   8.1658   8.5029

     occupation numbers 
     1.0000   1.0000   1.0000   1.0000   1.0000   1.0000   1.0000   1.0000
     1.0000   1.0000   1.0000   1.0000   1.0000   1.0000   1.0000   0.0000
     0.0000   0.0000   0.0000   0.0000   0.0000   0.0000   0.0000   0.0000
     0.0000   0.0000   0.0000   0.0000

          k = 0.9811 1.6007 0.0000 ( 16186 PWs)   bands (ev):

   -87.7487 -53.8695 -53.8672 -53.8517 -18.7783 -17.6834  -7.6373  -6.8313
    -6.2975  -5.3815  -4.7889  -4.5844  -2.0327  -1.8749  -1.4242  -0.3915
    -0.1494   3.1815   3.5097   3.9722   4.8306   5.0398   5.2666   6.2745
     6.9853   7.3782   7.8313   8.7177

     occupation numbers 
     1.0000   1.0000   1.0000   1.0000   1.0000   1.0000   1.0000   1.0000
     1.0000   1.0000   1.0000   1.0000   1.0000   1.0000   1.0000   0.0000
     0.0000   0.0000   0.0000   0.0000   0.0000   0.0000   0.0000   0.0000
     0.0000   0.0000   0.0000   0.0000

          k = 0.9811 1.6500 0.0000 ( 16163 PWs)   bands (ev):

   -87.7487 -53.8681 -53.8669 -53.8519 -18.8621 -17.7061  -7.7148  -6.6370
    -6.3108  -4.9952  -4.6688  -4.6215  -2.0454  -1.9834  -1.4702  -0.2654
    -0.0962   2.9517   3.3510   3.7660   4.4793   4.8620   5.0148   6.3593
     6.9008   7.2767   7.5241   9.0252

     occupation numbers 
     1.0000   1.0000   1.0000   1.0000   1.0000   1.0000   1.0000   1.0000
     1.0000   1.0000   1.0000   1.0000   1.0000   1.0000   1.0000   0.0000
     0.0000   0.0000   0.0000   0.0000   0.0000   0.0000   0.0000   0.0000
     0.0000   0.0000   0.0000   0.0000

          k = 0.9811 1.6992 0.0000 ( 16153 PWs)   bands (ev):

   -87.7488 -53.8672 -53.8666 -53.8521 -18.9198 -17.7225  -7.7717  -6.4764
    -6.3200  -4.7508  -4.6820  -4.5057  -2.0839  -2.0637  -1.5097  -0.1389
    -0.0488   2.7811   3.2407   3.6238   4.1588   4.7529   4.8323   6.3696
     6.9578   7.2063   7.2985   9.1930

     occupation numbers 
     1.0000   1.0000   1.0000   1.0000   1.0000   1.0000   1.0000   1.0000
     1.0000   1.0000   1.0000   1.0000   1.0000   1.0000   1.0000   0.0000
     0.0000   0.0000   0.0000   0.0000   0.0000   0.0000   0.0000   0.0000
     0.0000   0.0000   0.0000   0.0000

     the Fermi energy is    -0.8305 ev
     (compare with:    -0.5062 eV, computed in scf)

     Writing all to output data dir ./FeCl2.save/
 
     init_run     :      2.92s CPU      3.66s WALL (       1 calls)
     electrons    :   1642.96s CPU   1651.78s WALL (       1 calls)

     Called by init_run:
     wfcinit      :      0.00s CPU      0.03s WALL (       1 calls)
     wfcinit:atom :      0.70s CPU      0.71s WALL (     576 calls)
     wfcinit:wfcr :     46.57s CPU     46.97s WALL (     576 calls)
     potinit      :      0.34s CPU      0.58s WALL (       1 calls)
     hinit0       :      1.57s CPU      1.81s WALL (       1 calls)

     Called by electrons:
     c_bands      :   1642.90s CPU   1651.70s WALL (       1 calls)
     v_of_rho     :      0.18s CPU      0.22s WALL (       1 calls)
     v_h          :      0.01s CPU      0.01s WALL (       1 calls)
     v_xc         :      0.17s CPU      0.20s WALL (       1 calls)
     newd         :      0.58s CPU      0.75s WALL (       1 calls)
     PAW_pot      :      0.14s CPU      0.23s WALL (       1 calls)

     Called by c_bands:
     init_us_2    :      0.85s CPU      1.01s WALL (     576 calls)
     init_us_2:cp :      0.84s CPU      1.01s WALL (     576 calls)
     cegterg      :   1583.89s CPU   1590.60s WALL (    1871 calls)

     Called by sum_band:

     Called by *egterg:
     cdiaghg      :     37.76s CPU     38.03s WALL (   32329 calls)
     cegterg:over :    103.20s CPU    103.63s WALL (   31753 calls)
     cegterg:upda :     60.99s CPU     61.09s WALL (   31753 calls)
     cegterg:last :    139.05s CPU    139.11s WALL (   16040 calls)
     h_psi        :   1189.88s CPU   1195.80s WALL (   34200 calls)
     s_psi        :     55.63s CPU     55.73s WALL (   34200 calls)
     g_psi        :     11.89s CPU     11.91s WALL (   31753 calls)

     Called by h_psi:
     h_psi:calbec :     66.45s CPU     66.70s WALL (   34200 calls)
     vloc_psi     :   1061.87s CPU   1067.46s WALL (   34200 calls)
     add_vuspsi   :     56.89s CPU     56.98s WALL (   34200 calls)

     General routines
     calbec       :     66.34s CPU     66.62s WALL (   34200 calls)
     fft          :      0.13s CPU      0.32s WALL (      13 calls)
     ffts         :      0.00s CPU      0.00s WALL (       1 calls)
     fftw         :    799.65s CPU    803.91s WALL (  905070 calls)
     interpolate  :      0.01s CPU      0.01s WALL (       1 calls)
     davcio       :      0.32s CPU     30.03s WALL (    1152 calls)
 
     Parallel routines

     PAW routines
     PAW_pot      :      0.14s CPU      0.23s WALL (       1 calls)
 
     PWSCF        :  27m56.74s CPU  29m 5.05s WALL

 
   This run was terminated on:  19: 3: 9  23Sep2023            

=------------------------------------------------------------------------------=
   JOB DONE.
=------------------------------------------------------------------------------=
