
     Program BANDS v.7.2 starts on  9Feb2024 at 21:42:38 

     This program is part of the open-source Quantum ESPRESSO suite
     for quantum simulation of materials; please cite
         "P. Giannozzi et al., J. Phys.:Condens. Matter 21 395502 (2009);
         "P. Giannozzi et al., J. Phys.:Condens. Matter 29 465901 (2017);
         "P. Giannozzi et al., J. Chem. Phys. 152 154105 (2020);
          URL http://www.quantum-espresso.org", 
     in publications or presentations arising from this work. More details at
     http://www.quantum-espresso.org/quote

     Parallel version (MPI), running on    10 processors

     MPI processes distributed on     1 nodes
     R & G space division:  proc/nbgrp/npool/nimage =      10
     127523 MiB available memory on the printing compute node when the environment starts
 

     Reading xml data from directory:

     ./FeCl2.save/
     file Fe.pbe-spn-kjpaw_psl.1.0.0.UPF: wavefunction(s)  3P 3D renormalized
     file Cl.pbe-n-kjpaw_psl.1.0.0.UPF: wavefunction(s)  3S 3P renormalized

     IMPORTANT: XC functional enforced from input :
     Exchange-correlation= PBE
                           (   1   4   3   4   0   0   0)
     Any further DFT definition will be discarded
     Please, verify this is what you really want

 
     Parallelization info
     --------------------
     sticks:   dense  smooth     PW     G-vecs:    dense   smooth      PW
     Min         240      95     28                54892    13869    2128
     Max         241      96     29                54923    13906    2137
     Sum        2407     955    283               549131   138869   21325
 
     Using Slab Decomposition
 

     negative rho (up, down):  1.509E-04 2.998E-04
     Reading collected, re-writing distributed wavefunctions
     high-symmetry point:  0.0000 0.0000 0.0000   x coordinate   0.0000
     high-symmetry point:  0.0000 0.5714 0.0000   x coordinate   0.5714
     high-symmetry point: -0.3299 0.5714 0.0000   x coordinate   0.9013
     high-symmetry point:  0.0000 0.0000 0.0000   x coordinate   1.5611

     Plottable bands (eV) written to file bands_dn.dat.gnu
     Bands written to file bands_dn.dat

 **************************************************************************

                    xk=(   0.00000,   0.00000,   0.00000  )

     point group D_3d (-3m) 
     there are  6 classes
     the character table:

       E     2C3   3C2'  i     2S6   3s_d 
A_1g   1.00  1.00  1.00  1.00  1.00  1.00
A_2g   1.00  1.00 -1.00  1.00  1.00 -1.00
E_g    2.00 -1.00  0.00  2.00 -1.00  0.00
A_1u   1.00  1.00  1.00 -1.00 -1.00 -1.00
A_2u   1.00  1.00 -1.00 -1.00 -1.00  1.00
E_u    2.00 -1.00  0.00 -2.00  1.00  0.00

     the symmetry operations in each class and the name of the first element:

     E        1
                                                                 
     2C3      3    4
                                                                 
     3C2'     2    5    6
                                                                 
     i        7
                                                                 
     2S6      9   10
                                                                 
     3s_d     8   11   12
                                                                 

     Band symmetry, D_3d (-3m)  point group:

     e(  1 -  1) =    -87.58334  eV     1   --> A_1g L_1       
     e(  2 -  2) =    -53.72361  eV     1   --> A_2u L_2'      
     e(  3 -  4) =    -53.71976  eV     2   --> E_u  L_3'      
     e(  5 -  5) =    -18.36115  eV     1   --> A_1g L_1       
     e(  6 -  6) =    -17.66700  eV     1   --> A_2u L_2'      
     e(  7 -  7) =     -7.62211  eV     1   --> A_1g L_1       
     e(  8 -  9) =     -5.67287  eV     2   --> E_g  L_3       
     e( 10 - 10) =     -5.16596  eV     1   --> A_2u L_2'      
     e( 11 - 12) =     -4.50884  eV     2   --> E_u  L_3'      
     e( 13 - 14) =     -2.24147  eV     2   --> E_g  L_3       
     e( 15 - 15) =     -1.59983  eV     1   --> A_1g L_1       
     e( 16 - 17) =     -0.42506  eV     2   --> E_g  L_3       
     e( 18 - 18) =      1.80087  eV     1   --> A_1g L_1       
     e( 19 - 19) =      2.93383  eV     1   --> A_2u L_2'      
     e( 20 - 20) =      3.18471  eV     1   --> A_1g L_1       
     e( 21 - 21) =      3.38449  eV     1   --> A_2u L_2'      
     e( 22 - 22) =      4.09497  eV     1   --> A_1g L_1       
     e( 23 - 23) =      4.64026  eV     1   --> A_2u L_2'      
     e( 24 - 24) =      6.10719  eV     1   --> A_1g L_1       
     e( 25 - 26) =      6.70106  eV     2   --> E_u  L_3'      
     e( 27 - 27) =      7.24945  eV     1   --> A_2u L_2'      
     e( 28 - 28) =      8.47626  eV     1   --> A_1g L_1       
     e( 29 - 30) =      9.01259  eV     2   --> E_g  L_3       
     e( 31 - 31) =      9.19571  eV     1   --> A_1g L_1       
     e( 32 - 32) =     10.56076  eV     1   --> A_2u L_2'      

 **************************************************************************

 **************************************************************************

                    xk=(   0.00000,   0.01143,   0.00000  )

     point group C_s (m)    
     there are  2 classes
     the character table:

       E     s    
A'     1.00  1.00
A''    1.00 -1.00

     the symmetry operations in each class and the name of the first element:

     E        1
                                                                 
     s        2
                                                                 

     Band symmetry, C_s (m)     point group:

     e(  1 -  1) =    -87.58335  eV     1   --> A'             
     e(  2 -  2) =    -53.72362  eV     1   --> A'             
     e(  3 -  4) =    -53.71978  eV     2   --> A'             
     e(  3 -  4) =    -53.71978  eV     2   --> A''            
     e(  5 -  5) =    -18.36049  eV     1   --> A'             
     e(  6 -  6) =    -17.66670  eV     1   --> A'             
     e(  7 -  7) =     -7.62134  eV     1   --> A'             
     e(  8 -  8) =     -5.67724  eV     1   --> A'             
     e(  9 -  9) =     -5.67294  eV     1   --> A''            
     e( 10 - 10) =     -5.16321  eV     1   --> A'             
     e( 11 - 11) =     -4.51373  eV     1   --> A'             
     e( 12 - 12) =     -4.51029  eV     1   --> A''            
     e( 13 - 13) =     -2.24098  eV     1   --> A'             
     e( 14 - 14) =     -2.24034  eV     1   --> A''            
     e( 15 - 15) =     -1.59917  eV     1   --> A'             
     e( 16 - 16) =     -0.42675  eV     1   --> A'             
     e( 17 - 17) =     -0.42538  eV     1   --> A''            
     e( 18 - 18) =      1.80452  eV     1   --> A'             
     e( 19 - 19) =      2.93704  eV     1   --> A'             
     e( 20 - 20) =      3.18642  eV     1   --> A'             
     e( 21 - 21) =      3.38812  eV     1   --> A'             
     e( 22 - 22) =      4.09645  eV     1   --> A'             
     e( 23 - 23) =      4.64171  eV     1   --> A'             
     e( 24 - 24) =      6.10757  eV     1   --> A'             
     e( 25 - 25) =      6.69752  eV     1   --> A'             
     e( 26 - 26) =      6.70358  eV     1   --> A''            
     e( 27 - 27) =      7.25024  eV     1   --> A'             
     e( 28 - 28) =      8.47473  eV     1   --> A'             
     e( 29 - 29) =      9.00480  eV     1   --> A'             
     e( 30 - 30) =      9.01412  eV     1   --> A''            
     e( 31 - 31) =      9.19636  eV     1   --> A'             
     e( 32 - 32) =     10.56306  eV     1   --> A'             

 **************************************************************************

 **************************************************************************

                    xk=(   0.00000,   0.02286,   0.00000  )

     Band symmetry, C_s (m)     point group:

     e(  1 -  1) =    -87.58335  eV     1   --> A'             
     e(  2 -  2) =    -53.72363  eV     1   --> A'             
     e(  3 -  4) =    -53.71986  eV     2   --> A'             
     e(  3 -  4) =    -53.71986  eV     2   --> A''            
     e(  5 -  5) =    -18.35852  eV     1   --> A'             
     e(  6 -  6) =    -17.66579  eV     1   --> A'             
     e(  7 -  7) =     -7.61903  eV     1   --> A'             
     e(  8 -  8) =     -5.69004  eV     1   --> A'             
     e(  9 -  9) =     -5.67316  eV     1   --> A''            
     e( 10 - 10) =     -5.15528  eV     1   --> A'             
     e( 11 - 11) =     -4.52832  eV     1   --> A'             
     e( 12 - 12) =     -4.51461  eV     1   --> A''            
     e( 13 - 13) =     -2.23954  eV     1   --> A'             
     e( 14 - 14) =     -2.23696  eV     1   --> A''            
     e( 15 - 15) =     -1.59720  eV     1   --> A'             
     e( 16 - 16) =     -0.43178  eV     1   --> A'             
     e( 17 - 17) =     -0.42634  eV     1   --> A''            
     e( 18 - 18) =      1.81545  eV     1   --> A'             
     e( 19 - 19) =      2.94653  eV     1   --> A'             
     e( 20 - 20) =      3.19158  eV     1   --> A'             
     e( 21 - 21) =      3.39908  eV     1   --> A'             
     e( 22 - 22) =      4.10087  eV     1   --> A'             
     e( 23 - 23) =      4.64603  eV     1   --> A'             
     e( 24 - 24) =      6.10863  eV     1   --> A'             
     e( 25 - 25) =      6.68708  eV     1   --> A'             
     e( 26 - 26) =      6.71114  eV     1   --> A''            
     e( 27 - 27) =      7.25262  eV     1   --> A'             
     e( 28 - 28) =      8.47012  eV     1   --> A'             
     e( 29 - 29) =      8.98187  eV     1   --> A'             
     e( 30 - 30) =      9.01870  eV     1   --> A''            
     e( 31 - 31) =      9.19836  eV     1   --> A'             
     e( 32 - 32) =     10.56921  eV     1   --> A'             

 **************************************************************************

 **************************************************************************

                    xk=(   0.00000,   0.03428,   0.00000  )

     Band symmetry, C_s (m)     point group:

     e(  1 -  1) =    -87.58335  eV     1   --> A'             
     e(  2 -  2) =    -53.72363  eV     1   --> A'             
     e(  3 -  4) =    -53.71991  eV     2   --> A'             
     e(  3 -  4) =    -53.71991  eV     2   --> A''            
     e(  5 -  5) =    -18.35524  eV     1   --> A'             
     e(  6 -  6) =    -17.66427  eV     1   --> A'             
     e(  7 -  7) =     -7.61518  eV     1   --> A'             
     e(  8 -  8) =     -5.71041  eV     1   --> A'             
     e(  9 -  9) =     -5.67352  eV     1   --> A''            
     e( 10 - 10) =     -5.14303  eV     1   --> A'             
     e( 11 - 11) =     -4.55233  eV     1   --> A'             
     e( 12 - 12) =     -4.52175  eV     1   --> A''            
     e( 13 - 13) =     -2.23722  eV     1   --> A'             
     e( 14 - 14) =     -2.23134  eV     1   --> A''            
     e( 15 - 15) =     -1.59391  eV     1   --> A'             
     e( 16 - 16) =     -0.43993  eV     1   --> A'             
     e( 17 - 17) =     -0.42788  eV     1   --> A''            
     e( 18 - 18) =      1.83355  eV     1   --> A'             
     e( 19 - 19) =      2.96191  eV     1   --> A'             
     e( 20 - 20) =      3.20017  eV     1   --> A'             
     e( 21 - 21) =      3.41752  eV     1   --> A'             
     e( 22 - 22) =      4.10822  eV     1   --> A'             
     e( 23 - 23) =      4.65324  eV     1   --> A'             
     e( 24 - 24) =      6.11009  eV     1   --> A'             
     e( 25 - 25) =      6.67029  eV     1   --> A'             
     e( 26 - 26) =      6.72368  eV     1   --> A''            
     e( 27 - 27) =      7.25660  eV     1   --> A'             
     e( 28 - 28) =      8.46241  eV     1   --> A'             
     e( 29 - 29) =      8.94505  eV     1   --> A'             
     e( 30 - 30) =      9.02632  eV     1   --> A''            
     e( 31 - 31) =      9.20176  eV     1   --> A'             
     e( 32 - 32) =     10.57698  eV     1   --> A'             

 **************************************************************************

 **************************************************************************

                    xk=(   0.00000,   0.04571,   0.00000  )

     Band symmetry, C_s (m)     point group:

     e(  1 -  1) =    -87.58335  eV     1   --> A'             
     e(  2 -  2) =    -53.72361  eV     1   --> A'             
     e(  3 -  3) =    -53.71997  eV     1   --> A'             
     e(  4 -  4) =    -53.71982  eV     1   --> A''            
     e(  5 -  5) =    -18.35065  eV     1   --> A'             
     e(  6 -  6) =    -17.66216  eV     1   --> A'             
     e(  7 -  7) =     -7.60981  eV     1   --> A'             
     e(  8 -  8) =     -5.73724  eV     1   --> A'             
     e(  9 -  9) =     -5.67402  eV     1   --> A''            
     e( 10 - 10) =     -5.12758  eV     1   --> A'             
     e( 11 - 11) =     -4.58537  eV     1   --> A'             
     e( 12 - 12) =     -4.53164  eV     1   --> A''            
     e( 13 - 13) =     -2.23422  eV     1   --> A'             
     e( 14 - 14) =     -2.22356  eV     1   --> A''            
     e( 15 - 15) =     -1.58936  eV     1   --> A'             
     e( 16 - 16) =     -0.45097  eV     1   --> A'             
     e( 17 - 17) =     -0.42998  eV     1   --> A''            
     e( 18 - 18) =      1.85868  eV     1   --> A'             
     e( 19 - 19) =      2.98256  eV     1   --> A'             
     e( 20 - 20) =      3.21219  eV     1   --> A'             
     e( 21 - 21) =      3.44367  eV     1   --> A'             
     e( 22 - 22) =      4.11844  eV     1   --> A'             
     e( 23 - 23) =      4.66332  eV     1   --> A'             
     e( 24 - 24) =      6.11144  eV     1   --> A'             
     e( 25 - 25) =      6.64809  eV     1   --> A'             
     e( 26 - 26) =      6.74108  eV     1   --> A''            
     e( 27 - 27) =      7.26218  eV     1   --> A'             
     e( 28 - 28) =      8.45151  eV     1   --> A'             
     e( 29 - 29) =      8.89613  eV     1   --> A'             
     e( 30 - 30) =      9.03692  eV     1   --> A''            
     e( 31 - 31) =      9.20667  eV     1   --> A'             
     e( 32 - 32) =     10.58251  eV     1   --> A'             

 **************************************************************************

 **************************************************************************

                    xk=(   0.00000,   0.05714,   0.00000  )

     Band symmetry, C_s (m)     point group:

     e(  1 -  1) =    -87.58335  eV     1   --> A'             
     e(  2 -  2) =    -53.72361  eV     1   --> A'             
     e(  3 -  3) =    -53.72007  eV     1   --> A'             
     e(  4 -  4) =    -53.71985  eV     1   --> A''            
     e(  5 -  5) =    -18.34477  eV     1   --> A'             
     e(  6 -  6) =    -17.65945  eV     1   --> A'             
     e(  7 -  7) =     -7.60296  eV     1   --> A'             
     e(  8 -  8) =     -5.76939  eV     1   --> A'             
     e(  9 -  9) =     -5.67467  eV     1   --> A''            
     e( 10 - 10) =     -5.11007  eV     1   --> A'             
     e( 11 - 11) =     -4.62689  eV     1   --> A'             
     e( 12 - 12) =     -4.54417  eV     1   --> A''            
     e( 13 - 13) =     -2.23078  eV     1   --> A'             
     e( 14 - 14) =     -2.21377  eV     1   --> A''            
     e( 15 - 15) =     -1.58366  eV     1   --> A'             
     e( 16 - 16) =     -0.46454  eV     1   --> A'             
     e( 17 - 17) =     -0.43263  eV     1   --> A''            
     e( 18 - 18) =      1.89059  eV     1   --> A'             
     e( 19 - 19) =      3.00771  eV     1   --> A'             
     e( 20 - 20) =      3.22763  eV     1   --> A'             
     e( 21 - 21) =      3.47776  eV     1   --> A'             
     e( 22 - 22) =      4.13145  eV     1   --> A'             
     e( 23 - 23) =      4.67625  eV     1   --> A'             
     e( 24 - 24) =      6.11189  eV     1   --> A'             
     e( 25 - 25) =      6.62186  eV     1   --> A'             
     e( 26 - 26) =      6.76320  eV     1   --> A''            
     e( 27 - 27) =      7.26934  eV     1   --> A'             
     e( 28 - 28) =      8.43738  eV     1   --> A'             
     e( 29 - 29) =      8.83720  eV     1   --> A'             
     e( 30 - 30) =      9.05042  eV     1   --> A''            
     e( 31 - 31) =      9.21322  eV     1   --> A'             
     e( 32 - 32) =     10.58013  eV     1   --> A'             

 **************************************************************************

 **************************************************************************

                    xk=(   0.00000,   0.06857,   0.00000  )

     Band symmetry, C_s (m)     point group:

     e(  1 -  1) =    -87.58335  eV     1   --> A'             
     e(  2 -  2) =    -53.72362  eV     1   --> A'             
     e(  3 -  3) =    -53.72018  eV     1   --> A'             
     e(  4 -  4) =    -53.71989  eV     1   --> A''            
     e(  5 -  5) =    -18.33761  eV     1   --> A'             
     e(  6 -  6) =    -17.65617  eV     1   --> A'             
     e(  7 -  7) =     -7.59466  eV     1   --> A'             
     e(  8 -  8) =     -5.80586  eV     1   --> A'             
     e(  9 -  9) =     -5.67545  eV     1   --> A''            
     e( 10 - 10) =     -5.09151  eV     1   --> A'             
     e( 11 - 11) =     -4.67624  eV     1   --> A'             
     e( 12 - 12) =     -4.55922  eV     1   --> A''            
     e( 13 - 13) =     -2.22710  eV     1   --> A'             
     e( 14 - 14) =     -2.20210  eV     1   --> A''            
     e( 15 - 15) =     -1.57687  eV     1   --> A'             
     e( 16 - 16) =     -0.48023  eV     1   --> A'             
     e( 17 - 17) =     -0.43580  eV     1   --> A''            
     e( 18 - 18) =      1.92901  eV     1   --> A'             
     e( 19 - 19) =      3.03657  eV     1   --> A'             
     e( 20 - 20) =      3.24648  eV     1   --> A'             
     e( 21 - 21) =      3.51994  eV     1   --> A'             
     e( 22 - 22) =      4.14717  eV     1   --> A'             
     e( 23 - 23) =      4.69201  eV     1   --> A'             
     e( 24 - 24) =      6.11032  eV     1   --> A'             
     e( 25 - 25) =      6.59350  eV     1   --> A'             
     e( 26 - 26) =      6.78987  eV     1   --> A''            
     e( 27 - 27) =      7.27801  eV     1   --> A'             
     e( 28 - 28) =      8.41997  eV     1   --> A'             
     e( 29 - 29) =      8.77044  eV     1   --> A'             
     e( 30 - 30) =      9.06675  eV     1   --> A''            
     e( 31 - 31) =      9.22154  eV     1   --> A'             
     e( 32 - 32) =     10.56279  eV     1   --> A'             

 **************************************************************************

 **************************************************************************

                    xk=(   0.00000,   0.08000,   0.00000  )

     Band symmetry, C_s (m)     point group:

     e(  1 -  1) =    -87.58335  eV     1   --> A'             
     e(  2 -  2) =    -53.72360  eV     1   --> A'             
     e(  3 -  3) =    -53.72030  eV     1   --> A'             
     e(  4 -  4) =    -53.71994  eV     1   --> A''            
     e(  5 -  5) =    -18.32920  eV     1   --> A'             
     e(  6 -  6) =    -17.65232  eV     1   --> A'             
     e(  7 -  7) =     -7.58495  eV     1   --> A'             
     e(  8 -  8) =     -5.84582  eV     1   --> A'             
     e(  9 -  9) =     -5.67638  eV     1   --> A''            
     e( 10 - 10) =     -5.07275  eV     1   --> A'             
     e( 11 - 11) =     -4.73272  eV     1   --> A'             
     e( 12 - 12) =     -4.57662  eV     1   --> A''            
     e( 13 - 13) =     -2.22345  eV     1   --> A'             
     e( 14 - 14) =     -2.18867  eV     1   --> A''            
     e( 15 - 15) =     -1.56906  eV     1   --> A'             
     e( 16 - 16) =     -0.49757  eV     1   --> A'             
     e( 17 - 17) =     -0.43939  eV     1   --> A''            
     e( 18 - 18) =      1.97361  eV     1   --> A'             
     e( 19 - 19) =      3.06835  eV     1   --> A'             
     e( 20 - 20) =      3.26872  eV     1   --> A'             
     e( 21 - 21) =      3.57023  eV     1   --> A'             
     e( 22 - 22) =      4.16546  eV     1   --> A'             
     e( 23 - 23) =      4.71059  eV     1   --> A'             
     e( 24 - 24) =      6.10524  eV     1   --> A'             
     e( 25 - 25) =      6.56537  eV     1   --> A'             
     e( 26 - 26) =      6.82083  eV     1   --> A''            
     e( 27 - 27) =      7.28808  eV     1   --> A'             
     e( 28 - 28) =      8.39925  eV     1   --> A'             
     e( 29 - 29) =      8.69795  eV     1   --> A'             
     e( 30 - 30) =      9.08579  eV     1   --> A''            
     e( 31 - 31) =      9.23175  eV     1   --> A'             
     e( 32 - 32) =     10.52448  eV     1   --> A'             

 **************************************************************************

 **************************************************************************

                    xk=(   0.00000,   0.09143,   0.00000  )

     Band symmetry, C_s (m)     point group:

     e(  1 -  1) =    -87.58335  eV     1   --> A'             
     e(  2 -  2) =    -53.72359  eV     1   --> A'             
     e(  3 -  3) =    -53.72043  eV     1   --> A'             
     e(  4 -  4) =    -53.72000  eV     1   --> A''            
     e(  5 -  5) =    -18.31954  eV     1   --> A'             
     e(  6 -  6) =    -17.64791  eV     1   --> A'             
     e(  7 -  7) =     -7.57389  eV     1   --> A'             
     e(  8 -  8) =     -5.88860  eV     1   --> A'             
     e(  9 -  9) =     -5.67744  eV     1   --> A''            
     e( 10 - 10) =     -5.05446  eV     1   --> A'             
     e( 11 - 11) =     -4.79557  eV     1   --> A'             
     e( 12 - 12) =     -4.59622  eV     1   --> A''            
     e( 13 - 13) =     -2.22004  eV     1   --> A'             
     e( 14 - 14) =     -2.17366  eV     1   --> A''            
     e( 15 - 15) =     -1.56036  eV     1   --> A'             
     e( 16 - 16) =     -0.51606  eV     1   --> A'             
     e( 17 - 17) =     -0.44337  eV     1   --> A''            
     e( 18 - 18) =      2.02398  eV     1   --> A'             
     e( 19 - 19) =      3.10242  eV     1   --> A'             
     e( 20 - 20) =      3.29433  eV     1   --> A'             
     e( 21 - 21) =      3.62839  eV     1   --> A'             
     e( 22 - 22) =      4.18617  eV     1   --> A'             
     e( 23 - 23) =      4.73196  eV     1   --> A'             
     e( 24 - 24) =      6.09488  eV     1   --> A'             
     e( 25 - 25) =      6.54020  eV     1   --> A'             
     e( 26 - 26) =      6.85580  eV     1   --> A''            
     e( 27 - 27) =      7.29938  eV     1   --> A'             
     e( 28 - 28) =      8.37523  eV     1   --> A'             
     e( 29 - 29) =      8.62177  eV     1   --> A'             
     e( 30 - 30) =      9.10741  eV     1   --> A''            
     e( 31 - 31) =      9.24394  eV     1   --> A'             
     e( 32 - 32) =     10.46421  eV     1   --> A'             

 **************************************************************************

 **************************************************************************

                    xk=(   0.00000,   0.10285,   0.00000  )

     Band symmetry, C_s (m)     point group:

     e(  1 -  1) =    -87.58334  eV     1   --> A'             
     e(  2 -  2) =    -53.72355  eV     1   --> A'             
     e(  3 -  3) =    -53.72056  eV     1   --> A'             
     e(  4 -  4) =    -53.72002  eV     1   --> A''            
     e(  5 -  5) =    -18.30866  eV     1   --> A'             
     e(  6 -  6) =    -17.64298  eV     1   --> A'             
     e(  7 -  7) =     -7.56154  eV     1   --> A'             
     e(  8 -  8) =     -5.93367  eV     1   --> A'             
     e(  9 -  9) =     -5.67863  eV     1   --> A''            
     e( 10 - 10) =     -5.03717  eV     1   --> A'             
     e( 11 - 11) =     -4.86401  eV     1   --> A'             
     e( 12 - 12) =     -4.61785  eV     1   --> A''            
     e( 13 - 13) =     -2.21700  eV     1   --> A'             
     e( 14 - 14) =     -2.15723  eV     1   --> A''            
     e( 15 - 15) =     -1.55087  eV     1   --> A'             
     e( 16 - 16) =     -0.53518  eV     1   --> A'             
     e( 17 - 17) =     -0.44763  eV     1   --> A''            
     e( 18 - 18) =      2.07972  eV     1   --> A'             
     e( 19 - 19) =      3.13831  eV     1   --> A'             
     e( 20 - 20) =      3.32326  eV     1   --> A'             
     e( 21 - 21) =      3.69393  eV     1   --> A'             
     e( 22 - 22) =      4.20910  eV     1   --> A'             
     e( 23 - 23) =      4.75609  eV     1   --> A'             
     e( 24 - 24) =      6.07766  eV     1   --> A'             
     e( 25 - 25) =      6.52067  eV     1   --> A'             
     e( 26 - 26) =      6.89446  eV     1   --> A''            
     e( 27 - 27) =      7.31165  eV     1   --> A'             
     e( 28 - 28) =      8.34783  eV     1   --> A'             
     e( 29 - 29) =      8.54394  eV     1   --> A'             
     e( 30 - 30) =      9.13146  eV     1   --> A''            
     e( 31 - 31) =      9.25812  eV     1   --> A'             
     e( 32 - 32) =     10.38656  eV     1   --> A'             

 **************************************************************************

 **************************************************************************

                    xk=(   0.00000,   0.11428,   0.00000  )

     Band symmetry, C_s (m)     point group:

     e(  1 -  1) =    -87.58333  eV     1   --> A'             
     e(  2 -  2) =    -53.72352  eV     1   --> A'             
     e(  3 -  3) =    -53.72070  eV     1   --> A'             
     e(  4 -  4) =    -53.72006  eV     1   --> A''            
     e(  5 -  5) =    -18.29660  eV     1   --> A'             
     e(  6 -  6) =    -17.63753  eV     1   --> A'             
     e(  7 -  7) =     -7.54798  eV     1   --> A'             
     e(  8 -  8) =     -5.98062  eV     1   --> A'             
     e(  9 -  9) =     -5.67995  eV     1   --> A''            
     e( 10 - 10) =     -5.02128  eV     1   --> A'             
     e( 11 - 11) =     -4.93726  eV     1   --> A'             
     e( 12 - 12) =     -4.64130  eV     1   --> A''            
     e( 13 - 13) =     -2.21456  eV     1   --> A'             
     e( 14 - 14) =     -2.13958  eV     1   --> A''            
     e( 15 - 15) =     -1.54072  eV     1   --> A'             
     e( 16 - 16) =     -0.55446  eV     1   --> A'             
     e( 17 - 17) =     -0.45214  eV     1   --> A''            
     e( 18 - 18) =      2.14035  eV     1   --> A'             
     e( 19 - 19) =      3.17571  eV     1   --> A'             
     e( 20 - 20) =      3.35549  eV     1   --> A'             
     e( 21 - 21) =      3.76606  eV     1   --> A'             
     e( 22 - 22) =      4.23406  eV     1   --> A'             
     e( 23 - 23) =      4.78296  eV     1   --> A'             
     e( 24 - 24) =      6.05277  eV     1   --> A'             
     e( 25 - 25) =      6.50873  eV     1   --> A'             
     e( 26 - 26) =      6.93639  eV     1   --> A''            
     e( 27 - 27) =      7.32459  eV     1   --> A'             
     e( 28 - 28) =      8.31668  eV     1   --> A'             
     e( 29 - 29) =      8.46674  eV     1   --> A'             
     e( 30 - 30) =      9.15777  eV     1   --> A''            
     e( 31 - 31) =      9.27421  eV     1   --> A'             
     e( 32 - 32) =     10.29800  eV     1   --> A'             

 **************************************************************************

 **************************************************************************

                    xk=(   0.00000,   0.12571,   0.00000  )

     Band symmetry, C_s (m)     point group:

     e(  1 -  1) =    -87.58333  eV     1   --> A'             
     e(  2 -  2) =    -53.72352  eV     1   --> A'             
     e(  3 -  3) =    -53.72088  eV     1   --> A'             
     e(  4 -  4) =    -53.72011  eV     1   --> A''            
     e(  5 -  5) =    -18.28338  eV     1   --> A'             
     e(  6 -  6) =    -17.63159  eV     1   --> A'             
     e(  7 -  7) =     -7.53330  eV     1   --> A'             
     e(  8 -  8) =     -6.02914  eV     1   --> A'             
     e(  9 -  9) =     -5.68140  eV     1   --> A''            
     e( 10 - 10) =     -5.01455  eV     1   --> A'             
     e( 11 - 11) =     -5.00714  eV     1   --> A'             
     e( 12 - 12) =     -4.66641  eV     1   --> A''            
     e( 13 - 13) =     -2.21284  eV     1   --> A'             
     e( 14 - 14) =     -2.12091  eV     1   --> A''            
     e( 15 - 15) =     -1.53009  eV     1   --> A'             
     e( 16 - 16) =     -0.57345  eV     1   --> A'             
     e( 17 - 17) =     -0.45683  eV     1   --> A''            
     e( 18 - 18) =      2.20539  eV     1   --> A'             
     e( 19 - 19) =      3.21444  eV     1   --> A'             
     e( 20 - 20) =      3.39095  eV     1   --> A'             
     e( 21 - 21) =      3.84371  eV     1   --> A'             
     e( 22 - 22) =      4.26079  eV     1   --> A'             
     e( 23 - 23) =      4.81251  eV     1   --> A'             
     e( 24 - 24) =      6.02071  eV     1   --> A'             
     e( 25 - 25) =      6.50510  eV     1   --> A'             
     e( 26 - 26) =      6.98114  eV     1   --> A''            
     e( 27 - 27) =      7.33778  eV     1   --> A'             
     e( 28 - 28) =      8.28052  eV     1   --> A'             
     e( 29 - 29) =      8.39336  eV     1   --> A'             
     e( 30 - 30) =      9.18617  eV     1   --> A''            
     e( 31 - 31) =      9.29196  eV     1   --> A'             
     e( 32 - 32) =     10.20411  eV     1   --> A'             

 **************************************************************************

 **************************************************************************

                    xk=(   0.00000,   0.13714,   0.00000  )

     Band symmetry, C_s (m)     point group:

     e(  1 -  1) =    -87.58331  eV     1   --> A'             
     e(  2 -  2) =    -53.72347  eV     1   --> A'             
     e(  3 -  3) =    -53.72104  eV     1   --> A'             
     e(  4 -  4) =    -53.72014  eV     1   --> A''            
     e(  5 -  5) =    -18.26902  eV     1   --> A'             
     e(  6 -  6) =    -17.62518  eV     1   --> A'             
     e(  7 -  7) =     -7.51762  eV     1   --> A'             
     e(  8 -  8) =     -6.07895  eV     1   --> A'             
     e(  9 -  9) =     -5.68298  eV     1   --> A''            
     e( 10 - 10) =     -5.09510  eV     1   --> A'             
     e( 11 - 11) =     -4.99498  eV     1   --> A'             
     e( 12 - 12) =     -4.69298  eV     1   --> A''            
     e( 13 - 13) =     -2.21183  eV     1   --> A'             
     e( 14 - 14) =     -2.10138  eV     1   --> A''            
     e( 15 - 15) =     -1.51902  eV     1   --> A'             
     e( 16 - 16) =     -0.59165  eV     1   --> A'             
     e( 17 - 17) =     -0.46159  eV     1   --> A''            
     e( 18 - 18) =      2.27434  eV     1   --> A'             
     e( 19 - 19) =      3.25444  eV     1   --> A'             
     e( 20 - 20) =      3.42956  eV     1   --> A'             
     e( 21 - 21) =      3.92547  eV     1   --> A'             
     e( 22 - 22) =      4.28913  eV     1   --> A'             
     e( 23 - 23) =      4.84474  eV     1   --> A'             
     e( 24 - 24) =      5.98334  eV     1   --> A'             
     e( 25 - 25) =      6.50928  eV     1   --> A'             
     e( 26 - 26) =      7.02818  eV     1   --> A''            
     e( 27 - 27) =      7.35071  eV     1   --> A'             
     e( 28 - 28) =      8.23640  eV     1   --> A'             
     e( 29 - 29) =      8.32876  eV     1   --> A'             
     e( 30 - 30) =      9.21649  eV     1   --> A''            
     e( 31 - 31) =      9.31087  eV     1   --> A'             
     e( 32 - 32) =     10.10911  eV     1   --> A'             

 **************************************************************************

 **************************************************************************

                    xk=(   0.00000,   0.14857,   0.00000  )

     Band symmetry, C_s (m)     point group:

     e(  1 -  1) =    -87.58330  eV     1   --> A'             
     e(  2 -  2) =    -53.72344  eV     1   --> A'             
     e(  3 -  3) =    -53.72124  eV     1   --> A'             
     e(  4 -  4) =    -53.72018  eV     1   --> A''            
     e(  5 -  5) =    -18.25358  eV     1   --> A'             
     e(  6 -  6) =    -17.61834  eV     1   --> A'             
     e(  7 -  7) =     -7.50105  eV     1   --> A'             
     e(  8 -  8) =     -6.12985  eV     1   --> A'             
     e(  9 -  9) =     -5.68467  eV     1   --> A''            
     e( 10 - 10) =     -5.17816  eV     1   --> A'             
     e( 11 - 11) =     -4.98500  eV     1   --> A'             
     e( 12 - 12) =     -4.72083  eV     1   --> A''            
     e( 13 - 13) =     -2.21164  eV     1   --> A'             
     e( 14 - 14) =     -2.08120  eV     1   --> A''            
     e( 15 - 15) =     -1.50767  eV     1   --> A'             
     e( 16 - 16) =     -0.60868  eV     1   --> A'             
     e( 17 - 17) =     -0.46638  eV     1   --> A''            
     e( 18 - 18) =      2.34671  eV     1   --> A'             
     e( 19 - 19) =      3.29564  eV     1   --> A'             
     e( 20 - 20) =      3.47121  eV     1   --> A'             
     e( 21 - 21) =      4.00950  eV     1   --> A'             
     e( 22 - 22) =      4.31903  eV     1   --> A'             
     e( 23 - 23) =      4.87963  eV     1   --> A'             
     e( 24 - 24) =      5.94330  eV     1   --> A'             
     e( 25 - 25) =      6.52005  eV     1   --> A'             
     e( 26 - 26) =      7.07693  eV     1   --> A''            
     e( 27 - 27) =      7.36271  eV     1   --> A'             
     e( 28 - 28) =      8.18191  eV     1   --> A'             
     e( 29 - 29) =      8.27745  eV     1   --> A'             
     e( 30 - 30) =      9.24856  eV     1   --> A''            
     e( 31 - 31) =      9.33005  eV     1   --> A'             
     e( 32 - 32) =     10.01649  eV     1   --> A'             

 **************************************************************************

 **************************************************************************

                    xk=(   0.00000,   0.16000,   0.00000  )

     Band symmetry, C_s (m)     point group:

     e(  1 -  1) =    -87.58329  eV     1   --> A'             
     e(  2 -  2) =    -53.72341  eV     1   --> A'             
     e(  3 -  3) =    -53.72145  eV     1   --> A'             
     e(  4 -  4) =    -53.72025  eV     1   --> A''            
     e(  5 -  5) =    -18.23709  eV     1   --> A'             
     e(  6 -  6) =    -17.61108  eV     1   --> A'             
     e(  7 -  7) =     -7.48374  eV     1   --> A'             
     e(  8 -  8) =     -6.18167  eV     1   --> A'             
     e(  9 -  9) =     -5.68648  eV     1   --> A''            
     e( 10 - 10) =     -5.26300  eV     1   --> A'             
     e( 11 - 11) =     -4.97735  eV     1   --> A'             
     e( 12 - 12) =     -4.74977  eV     1   --> A''            
     e( 13 - 13) =     -2.21230  eV     1   --> A'             
     e( 14 - 14) =     -2.06053  eV     1   --> A''            
     e( 15 - 15) =     -1.49617  eV     1   --> A'             
     e( 16 - 16) =     -0.62418  eV     1   --> A'             
     e( 17 - 17) =     -0.47113  eV     1   --> A''            
     e( 18 - 18) =      2.42198  eV     1   --> A'             
     e( 19 - 19) =      3.33799  eV     1   --> A'             
     e( 20 - 20) =      3.51578  eV     1   --> A'             
     e( 21 - 21) =      4.09329  eV     1   --> A'             
     e( 22 - 22) =      4.35092  eV     1   --> A'             
     e( 23 - 23) =      4.91716  eV     1   --> A'             
     e( 24 - 24) =      5.90362  eV     1   --> A'             
     e( 25 - 25) =      6.53596  eV     1   --> A'             
     e( 26 - 26) =      7.12670  eV     1   --> A''            
     e( 27 - 27) =      7.37298  eV     1   --> A'             
     e( 28 - 28) =      8.12097  eV     1   --> A'             
     e( 29 - 29) =      8.23771  eV     1   --> A'             
     e( 30 - 30) =      9.28226  eV     1   --> A''            
     e( 31 - 31) =      9.34792  eV     1   --> A'             
     e( 32 - 32) =      9.92968  eV     1   --> A'             

 **************************************************************************

 **************************************************************************

                    xk=(   0.00000,   0.17142,   0.00000  )

     Band symmetry, C_s (m)     point group:

     e(  1 -  1) =    -87.58328  eV     1   --> A'             
     e(  2 -  2) =    -53.72337  eV     1   --> A'             
     e(  3 -  3) =    -53.72164  eV     1   --> A'             
     e(  4 -  4) =    -53.72030  eV     1   --> A''            
     e(  5 -  5) =    -18.21958  eV     1   --> A'             
     e(  6 -  6) =    -17.60345  eV     1   --> A'             
     e(  7 -  7) =     -7.46588  eV     1   --> A'             
     e(  8 -  8) =     -6.23427  eV     1   --> A'             
     e(  9 -  9) =     -5.68840  eV     1   --> A''            
     e( 10 - 10) =     -5.34887  eV     1   --> A'             
     e( 11 - 11) =     -4.97212  eV     1   --> A'             
     e( 12 - 12) =     -4.77963  eV     1   --> A''            
     e( 13 - 13) =     -2.21375  eV     1   --> A'             
     e( 14 - 14) =     -2.03954  eV     1   --> A''            
     e( 15 - 15) =     -1.48457  eV     1   --> A'             
     e( 16 - 16) =     -0.63780  eV     1   --> A'             
     e( 17 - 17) =     -0.47574  eV     1   --> A''            
     e( 18 - 18) =      2.49966  eV     1   --> A'             
     e( 19 - 19) =      3.38141  eV     1   --> A'             
     e( 20 - 20) =      3.56309  eV     1   --> A'             
     e( 21 - 21) =      4.17304  eV     1   --> A'             
     e( 22 - 22) =      4.38622  eV     1   --> A'             
     e( 23 - 23) =      4.95738  eV     1   --> A'             
     e( 24 - 24) =      5.86734  eV     1   --> A'             
     e( 25 - 25) =      6.55570  eV     1   --> A'             
     e( 26 - 26) =      7.17675  eV     1   --> A''            
     e( 27 - 27) =      7.38052  eV     1   --> A'             
     e( 28 - 28) =      8.06015  eV     1   --> A'             
     e( 29 - 29) =      8.20534  eV     1   --> A'             
     e( 30 - 30) =      9.31757  eV     1   --> A''            
     e( 31 - 31) =      9.36180  eV     1   --> A'             
     e( 32 - 32) =      9.85280  eV     1   --> A'             

 **************************************************************************

 **************************************************************************

                    xk=(   0.00000,   0.18285,   0.00000  )

     Band symmetry, C_s (m)     point group:

     e(  1 -  1) =    -87.58326  eV     1   --> A'             
     e(  2 -  2) =    -53.72334  eV     1   --> A'             
     e(  3 -  3) =    -53.72185  eV     1   --> A'             
     e(  4 -  4) =    -53.72034  eV     1   --> A''            
     e(  5 -  5) =    -18.20112  eV     1   --> A'             
     e(  6 -  6) =    -17.59547  eV     1   --> A'             
     e(  7 -  7) =     -7.44768  eV     1   --> A'             
     e(  8 -  8) =     -6.28756  eV     1   --> A'             
     e(  9 -  9) =     -5.69042  eV     1   --> A''            
     e( 10 - 10) =     -5.43504  eV     1   --> A'             
     e( 11 - 11) =     -4.96938  eV     1   --> A'             
     e( 12 - 12) =     -4.81023  eV     1   --> A''            
     e( 13 - 13) =     -2.21604  eV     1   --> A'             
     e( 14 - 14) =     -2.01838  eV     1   --> A''            
     e( 15 - 15) =     -1.47300  eV     1   --> A'             
     e( 16 - 16) =     -0.64930  eV     1   --> A'             
     e( 17 - 17) =     -0.48015  eV     1   --> A''            
     e( 18 - 18) =      2.57927  eV     1   --> A'             
     e( 19 - 19) =      3.42570  eV     1   --> A'             
     e( 20 - 20) =      3.61291  eV     1   --> A'             
     e( 21 - 21) =      4.24306  eV     1   --> A'             
     e( 22 - 22) =      4.42817  eV     1   --> A'             
     e( 23 - 23) =      5.00032  eV     1   --> A'             
     e( 24 - 24) =      5.83741  eV     1   --> A'             
     e( 25 - 25) =      6.57815  eV     1   --> A'             
     e( 26 - 26) =      7.22627  eV     1   --> A''            
     e( 27 - 27) =      7.38415  eV     1   --> A'             
     e( 28 - 28) =      8.00380  eV     1   --> A'             
     e( 29 - 29) =      8.17846  eV     1   --> A'             
     e( 30 - 30) =      9.35454  eV     1   --> A''            
     e( 31 - 31) =      9.36739  eV     1   --> A'             
     e( 32 - 32) =      9.79133  eV     1   --> A'             

 **************************************************************************

 **************************************************************************

                    xk=(   0.00000,   0.19428,   0.00000  )

     Band symmetry, C_s (m)     point group:

     e(  1 -  1) =    -87.58325  eV     1   --> A'             
     e(  2 -  2) =    -53.72333  eV     1   --> A'             
     e(  3 -  3) =    -53.72209  eV     1   --> A'             
     e(  4 -  4) =    -53.72042  eV     1   --> A''            
     e(  5 -  5) =    -18.18174  eV     1   --> A'             
     e(  6 -  6) =    -17.58718  eV     1   --> A'             
     e(  7 -  7) =     -7.42937  eV     1   --> A'             
     e(  8 -  8) =     -6.34145  eV     1   --> A'             
     e(  9 -  9) =     -5.69254  eV     1   --> A''            
     e( 10 - 10) =     -5.52078  eV     1   --> A'             
     e( 11 - 11) =     -4.96916  eV     1   --> A'             
     e( 12 - 12) =     -4.84143  eV     1   --> A''            
     e( 13 - 13) =     -2.21911  eV     1   --> A'             
     e( 14 - 14) =     -1.99723  eV     1   --> A''            
     e( 15 - 15) =     -1.46154  eV     1   --> A'             
     e( 16 - 16) =     -0.65847  eV     1   --> A'             
     e( 17 - 17) =     -0.48434  eV     1   --> A''            
     e( 18 - 18) =      2.66033  eV     1   --> A'             
     e( 19 - 19) =      3.47058  eV     1   --> A'             
     e( 20 - 20) =      3.66495  eV     1   --> A'             
     e( 21 - 21) =      4.29698  eV     1   --> A'             
     e( 22 - 22) =      4.48065  eV     1   --> A'             
     e( 23 - 23) =      5.04609  eV     1   --> A'             
     e( 24 - 24) =      5.81658  eV     1   --> A'             
     e( 25 - 25) =      6.60245  eV     1   --> A'             
     e( 26 - 26) =      7.27438  eV     1   --> A''            
     e( 27 - 27) =      7.38263  eV     1   --> A'             
     e( 28 - 28) =      7.95456  eV     1   --> A'             
     e( 29 - 29) =      8.15692  eV     1   --> A'             
     e( 30 - 30) =      9.35957  eV     1   --> A'             
     e( 31 - 31) =      9.39339  eV     1   --> A''            
     e( 32 - 32) =      9.75146  eV     1   --> A'             

 **************************************************************************

 **************************************************************************

                    xk=(   0.00000,   0.20571,   0.00000  )

     Band symmetry, C_s (m)     point group:

     e(  1 -  1) =    -87.58324  eV     1   --> A'             
     e(  2 -  2) =    -53.72330  eV     1   --> A'             
     e(  3 -  3) =    -53.72232  eV     1   --> A'             
     e(  4 -  4) =    -53.72049  eV     1   --> A''            
     e(  5 -  5) =    -18.16150  eV     1   --> A'             
     e(  6 -  6) =    -17.57863  eV     1   --> A'             
     e(  7 -  7) =     -7.41126  eV     1   --> A'             
     e(  8 -  8) =     -6.39586  eV     1   --> A'             
     e(  9 -  9) =     -5.69474  eV     1   --> A''            
     e( 10 - 10) =     -5.60532  eV     1   --> A'             
     e( 11 - 11) =     -4.97146  eV     1   --> A'             
     e( 12 - 12) =     -4.87307  eV     1   --> A''            
     e( 13 - 13) =     -2.22290  eV     1   --> A'             
     e( 14 - 14) =     -1.97619  eV     1   --> A''            
     e( 15 - 15) =     -1.45025  eV     1   --> A'             
     e( 16 - 16) =     -0.66511  eV     1   --> A'             
     e( 17 - 17) =     -0.48821  eV     1   --> A''            
     e( 18 - 18) =      2.74238  eV     1   --> A'             
     e( 19 - 19) =      3.51556  eV     1   --> A'             
     e( 20 - 20) =      3.71882  eV     1   --> A'             
     e( 21 - 21) =      4.33297  eV     1   --> A'             
     e( 22 - 22) =      4.54335  eV     1   --> A'             
     e( 23 - 23) =      5.09477  eV     1   --> A'             
     e( 24 - 24) =      5.80726  eV     1   --> A'             
     e( 25 - 25) =      6.62796  eV     1   --> A'             
     e( 26 - 26) =      7.32018  eV     1   --> A''            
     e( 27 - 27) =      7.37482  eV     1   --> A'             
     e( 28 - 28) =      7.91413  eV     1   --> A'             
     e( 29 - 29) =      8.14123  eV     1   --> A'             
     e( 30 - 30) =      9.33582  eV     1   --> A'             
     e( 31 - 31) =      9.43450  eV     1   --> A''            
     e( 32 - 32) =      9.73671  eV     1   --> A'             

 **************************************************************************

 **************************************************************************

                    xk=(   0.00000,   0.21714,   0.00000  )

     Band symmetry, C_s (m)     point group:

     e(  1 -  1) =    -87.58323  eV     1   --> A'             
     e(  2 -  2) =    -53.72327  eV     1   --> A'             
     e(  3 -  3) =    -53.72257  eV     1   --> A'             
     e(  4 -  4) =    -53.72057  eV     1   --> A''            
     e(  5 -  5) =    -18.14046  eV     1   --> A'             
     e(  6 -  6) =    -17.56984  eV     1   --> A'             
     e(  7 -  7) =     -7.39369  eV     1   --> A'             
     e(  8 -  8) =     -6.45074  eV     1   --> A'             
     e(  9 -  9) =     -5.69702  eV     1   --> A''            
     e( 10 - 10) =     -5.68790  eV     1   --> A'             
     e( 11 - 11) =     -4.97626  eV     1   --> A'             
     e( 12 - 12) =     -4.90499  eV     1   --> A''            
     e( 13 - 13) =     -2.22738  eV     1   --> A'             
     e( 14 - 14) =     -1.95539  eV     1   --> A''            
     e( 15 - 15) =     -1.43919  eV     1   --> A'             
     e( 16 - 16) =     -0.66911  eV     1   --> A'             
     e( 17 - 17) =     -0.49173  eV     1   --> A''            
     e( 18 - 18) =      2.82496  eV     1   --> A'             
     e( 19 - 19) =      3.55992  eV     1   --> A'             
     e( 20 - 20) =      3.77404  eV     1   --> A'             
     e( 21 - 21) =      4.35496  eV     1   --> A'             
     e( 22 - 22) =      4.61096  eV     1   --> A'             
     e( 23 - 23) =      5.14636  eV     1   --> A'             
     e( 24 - 24) =      5.81128  eV     1   --> A'             
     e( 25 - 25) =      6.65432  eV     1   --> A'             
     e( 26 - 26) =      7.36001  eV     1   --> A'             
     e( 27 - 27) =      7.36275  eV     1   --> A''            
     e( 28 - 28) =      7.88338  eV     1   --> A'             
     e( 29 - 29) =      8.13215  eV     1   --> A'             
     e( 30 - 30) =      9.29952  eV     1   --> A'             
     e( 31 - 31) =      9.47844  eV     1   --> A''            
     e( 32 - 32) =      9.74464  eV     1   --> A'             

 **************************************************************************

 **************************************************************************

                    xk=(   0.00000,   0.22857,   0.00000  )

     Band symmetry, C_s (m)     point group:

     e(  1 -  1) =    -87.58322  eV     1   --> A'             
     e(  2 -  2) =    -53.72325  eV     1   --> A'             
     e(  3 -  3) =    -53.72284  eV     1   --> A'             
     e(  4 -  4) =    -53.72064  eV     1   --> A''            
     e(  5 -  5) =    -18.11867  eV     1   --> A'             
     e(  6 -  6) =    -17.56086  eV     1   --> A'             
     e(  7 -  7) =     -7.37708  eV     1   --> A'             
     e(  8 -  8) =     -6.50602  eV     1   --> A'             
     e(  9 -  9) =     -5.76772  eV     1   --> A'             
     e( 10 - 10) =     -5.69936  eV     1   --> A''            
     e( 11 - 11) =     -4.98350  eV     1   --> A'             
     e( 12 - 12) =     -4.93707  eV     1   --> A''            
     e( 13 - 13) =     -2.23247  eV     1   --> A'             
     e( 14 - 14) =     -1.93493  eV     1   --> A''            
     e( 15 - 15) =     -1.42848  eV     1   --> A'             
     e( 16 - 16) =     -0.67042  eV     1   --> A'             
     e( 17 - 17) =     -0.49484  eV     1   --> A''            
     e( 18 - 18) =      2.90761  eV     1   --> A'             
     e( 19 - 19) =      3.60254  eV     1   --> A'             
     e( 20 - 20) =      3.83002  eV     1   --> A'             
     e( 21 - 21) =      4.36811  eV     1   --> A'             
     e( 22 - 22) =      4.67822  eV     1   --> A'             
     e( 23 - 23) =      5.20072  eV     1   --> A'             
     e( 24 - 24) =      5.82961  eV     1   --> A'             
     e( 25 - 25) =      6.68144  eV     1   --> A'             
     e( 26 - 26) =      7.33821  eV     1   --> A'             
     e( 27 - 27) =      7.40120  eV     1   --> A''            
     e( 28 - 28) =      7.86220  eV     1   --> A'             
     e( 29 - 29) =      8.13044  eV     1   --> A'             
     e( 30 - 30) =      9.25752  eV     1   --> A'             
     e( 31 - 31) =      9.52594  eV     1   --> A''            
     e( 32 - 32) =      9.76929  eV     1   --> A'             

 **************************************************************************

 **************************************************************************

                    xk=(   0.00000,   0.23999,   0.00000  )

     Band symmetry, C_s (m)     point group:

     e(  1 -  1) =    -87.58321  eV     1   --> A'             
     e(  2 -  2) =    -53.72322  eV     1   --> A'             
     e(  3 -  3) =    -53.72306  eV     1   --> A'             
     e(  4 -  4) =    -53.72070  eV     1   --> A''            
     e(  5 -  5) =    -18.09619  eV     1   --> A'             
     e(  6 -  6) =    -17.55173  eV     1   --> A'             
     e(  7 -  7) =     -7.36195  eV     1   --> A'             
     e(  8 -  8) =     -6.56158  eV     1   --> A'             
     e(  9 -  9) =     -5.84396  eV     1   --> A'             
     e( 10 - 10) =     -5.70176  eV     1   --> A''            
     e( 11 - 11) =     -4.99311  eV     1   --> A'             
     e( 12 - 12) =     -4.96918  eV     1   --> A''            
     e( 13 - 13) =     -2.23810  eV     1   --> A'             
     e( 14 - 14) =     -1.91488  eV     1   --> A''            
     e( 15 - 15) =     -1.41809  eV     1   --> A'             
     e( 16 - 16) =     -0.66895  eV     1   --> A'             
     e( 17 - 17) =     -0.49750  eV     1   --> A''            
     e( 18 - 18) =      2.98985  eV     1   --> A'             
     e( 19 - 19) =      3.64179  eV     1   --> A'             
     e( 20 - 20) =      3.88612  eV     1   --> A'             
     e( 21 - 21) =      4.37699  eV     1   --> A'             
     e( 22 - 22) =      4.74212  eV     1   --> A'             
     e( 23 - 23) =      5.25749  eV     1   --> A'             
     e( 24 - 24) =      5.86226  eV     1   --> A'             
     e( 25 - 25) =      6.70952  eV     1   --> A'             
     e( 26 - 26) =      7.31021  eV     1   --> A'             
     e( 27 - 27) =      7.43477  eV     1   --> A''            
     e( 28 - 28) =      7.84955  eV     1   --> A'             
     e( 29 - 29) =      8.13684  eV     1   --> A'             
     e( 30 - 30) =      9.21598  eV     1   --> A'             
     e( 31 - 31) =      9.57781  eV     1   --> A''            
     e( 32 - 32) =      9.80532  eV     1   --> A'             

 **************************************************************************

 **************************************************************************

                    xk=(   0.00000,   0.25142,   0.00000  )

     Band symmetry, C_s (m)     point group:

     e(  1 -  1) =    -87.58319  eV     1   --> A'             
     e(  2 -  2) =    -53.72335  eV     1   --> A'             
     e(  3 -  3) =    -53.72314  eV     1   --> A'             
     e(  4 -  4) =    -53.72077  eV     1   --> A''            
     e(  5 -  5) =    -18.07310  eV     1   --> A'             
     e(  6 -  6) =    -17.54251  eV     1   --> A'             
     e(  7 -  7) =     -7.34889  eV     1   --> A'             
     e(  8 -  8) =     -6.61729  eV     1   --> A'             
     e(  9 -  9) =     -5.91579  eV     1   --> A'             
     e( 10 - 10) =     -5.70419  eV     1   --> A''            
     e( 11 - 11) =     -5.00500  eV     1   --> A'             
     e( 12 - 12) =     -5.00119  eV     1   --> A''            
     e( 13 - 13) =     -2.24423  eV     1   --> A'             
     e( 14 - 14) =     -1.89536  eV     1   --> A''            
     e( 15 - 15) =     -1.40812  eV     1   --> A'             
     e( 16 - 16) =     -0.66478  eV     1   --> A'             
     e( 17 - 17) =     -0.49971  eV     1   --> A''            
     e( 18 - 18) =      3.07115  eV     1   --> A'             
     e( 19 - 19) =      3.67541  eV     1   --> A'             
     e( 20 - 20) =      3.94175  eV     1   --> A'             
     e( 21 - 21) =      4.38610  eV     1   --> A'             
     e( 22 - 22) =      4.80145  eV     1   --> A'             
     e( 23 - 23) =      5.31612  eV     1   --> A'             
     e( 24 - 24) =      5.90818  eV     1   --> A'             
     e( 25 - 25) =      6.73907  eV     1   --> A'             
     e( 26 - 26) =      7.27723  eV     1   --> A'             
     e( 27 - 27) =      7.46279  eV     1   --> A''            
     e( 28 - 28) =      7.84379  eV     1   --> A'             
     e( 29 - 29) =      8.15197  eV     1   --> A'             
     e( 30 - 30) =      9.17903  eV     1   --> A'             
     e( 31 - 31) =      9.63490  eV     1   --> A''            
     e( 32 - 32) =      9.84926  eV     1   --> A'             

 **************************************************************************

 **************************************************************************

                    xk=(   0.00000,   0.26285,   0.00000  )

     Band symmetry, C_s (m)     point group:

     e(  1 -  1) =    -87.58317  eV     1   --> A'             
     e(  2 -  2) =    -53.72360  eV     1   --> A'             
     e(  3 -  3) =    -53.72311  eV     1   --> A'             
     e(  4 -  4) =    -53.72083  eV     1   --> A''            
     e(  5 -  5) =    -18.04945  eV     1   --> A'             
     e(  6 -  6) =    -17.53323  eV     1   --> A'             
     e(  7 -  7) =     -7.33862  eV     1   --> A'             
     e(  8 -  8) =     -6.67289  eV     1   --> A'             
     e(  9 -  9) =     -5.98238  eV     1   --> A'             
     e( 10 - 10) =     -5.70665  eV     1   --> A''            
     e( 11 - 11) =     -5.03300  eV     1   --> A''            
     e( 12 - 12) =     -5.01905  eV     1   --> A'             
     e( 13 - 13) =     -2.25078  eV     1   --> A'             
     e( 14 - 14) =     -1.87641  eV     1   --> A''            
     e( 15 - 15) =     -1.39860  eV     1   --> A'             
     e( 16 - 16) =     -0.65797  eV     1   --> A'             
     e( 17 - 17) =     -0.50143  eV     1   --> A''            
     e( 18 - 18) =      3.15088  eV     1   --> A'             
     e( 19 - 19) =      3.70057  eV     1   --> A'             
     e( 20 - 20) =      3.99666  eV     1   --> A'             
     e( 21 - 21) =      4.39996  eV     1   --> A'             
     e( 22 - 22) =      4.85616  eV     1   --> A'             
     e( 23 - 23) =      5.37599  eV     1   --> A'             
     e( 24 - 24) =      5.96548  eV     1   --> A'             
     e( 25 - 25) =      6.77080  eV     1   --> A'             
     e( 26 - 26) =      7.24065  eV     1   --> A'             
     e( 27 - 27) =      7.48483  eV     1   --> A''            
     e( 28 - 28) =      7.84319  eV     1   --> A'             
     e( 29 - 29) =      8.17628  eV     1   --> A'             
     e( 30 - 30) =      9.14921  eV     1   --> A'             
     e( 31 - 31) =      9.69796  eV     1   --> A''            
     e( 32 - 32) =      9.89900  eV     1   --> A'             

 **************************************************************************

 **************************************************************************

                    xk=(   0.00000,   0.27428,   0.00000  )

     Band symmetry, C_s (m)     point group:

     e(  1 -  1) =    -87.58316  eV     1   --> A'             
     e(  2 -  2) =    -53.72384  eV     1   --> A'             
     e(  3 -  3) =    -53.72307  eV     1   --> A'             
     e(  4 -  4) =    -53.72091  eV     1   --> A''            
     e(  5 -  5) =    -18.02532  eV     1   --> A'             
     e(  6 -  6) =    -17.52395  eV     1   --> A'             
     e(  7 -  7) =     -7.33199  eV     1   --> A'             
     e(  8 -  8) =     -6.72800  eV     1   --> A'             
     e(  9 -  9) =     -6.04296  eV     1   --> A'             
     e( 10 - 10) =     -5.70912  eV     1   --> A''            
     e( 11 - 11) =     -5.06451  eV     1   --> A''            
     e( 12 - 12) =     -5.03515  eV     1   --> A'             
     e( 13 - 13) =     -2.25771  eV     1   --> A'             
     e( 14 - 14) =     -1.85811  eV     1   --> A''            
     e( 15 - 15) =     -1.38953  eV     1   --> A'             
     e( 16 - 16) =     -0.64861  eV     1   --> A'             
     e( 17 - 17) =     -0.50269  eV     1   --> A''            
     e( 18 - 18) =      3.22831  eV     1   --> A'             
     e( 19 - 19) =      3.71452  eV     1   --> A'             
     e( 20 - 20) =      4.05124  eV     1   --> A'             
     e( 21 - 21) =      4.42243  eV     1   --> A'             
     e( 22 - 22) =      4.90684  eV     1   --> A'             
     e( 23 - 23) =      5.43649  eV     1   --> A'             
     e( 24 - 24) =      6.03171  eV     1   --> A'             
     e( 25 - 25) =      6.80558  eV     1   --> A'             
     e( 26 - 26) =      7.20166  eV     1   --> A'             
     e( 27 - 27) =      7.50064  eV     1   --> A''            
     e( 28 - 28) =      7.84639  eV     1   --> A'             
     e( 29 - 29) =      8.20991  eV     1   --> A'             
     e( 30 - 30) =      9.12795  eV     1   --> A'             
     e( 31 - 31) =      9.76758  eV     1   --> A''            
     e( 32 - 32) =      9.95326  eV     1   --> A'             

 **************************************************************************

 **************************************************************************

                    xk=(   0.00000,   0.28571,   0.00000  )

     Band symmetry, C_s (m)     point group:

     e(  1 -  1) =    -87.58314  eV     1   --> A'             
     e(  2 -  2) =    -53.72410  eV     1   --> A'             
     e(  3 -  3) =    -53.72305  eV     1   --> A'             
     e(  4 -  4) =    -53.72099  eV     1   --> A''            
     e(  5 -  5) =    -18.00078  eV     1   --> A'             
     e(  6 -  6) =    -17.51472  eV     1   --> A'             
     e(  7 -  7) =     -7.32996  eV     1   --> A'             
     e(  8 -  8) =     -6.78209  eV     1   --> A'             
     e(  9 -  9) =     -6.09680  eV     1   --> A'             
     e( 10 - 10) =     -5.71159  eV     1   --> A''            
     e( 11 - 11) =     -5.09561  eV     1   --> A''            
     e( 12 - 12) =     -5.05317  eV     1   --> A'             
     e( 13 - 13) =     -2.26494  eV     1   --> A'             
     e( 14 - 14) =     -1.84051  eV     1   --> A''            
     e( 15 - 15) =     -1.38101  eV     1   --> A'             
     e( 16 - 16) =     -0.63686  eV     1   --> A'             
     e( 17 - 17) =     -0.50348  eV     1   --> A''            
     e( 18 - 18) =      3.30244  eV     1   --> A'             
     e( 19 - 19) =      3.71567  eV     1   --> A'             
     e( 20 - 20) =      4.10652  eV     1   --> A'             
     e( 21 - 21) =      4.45560  eV     1   --> A'             
     e( 22 - 22) =      4.95450  eV     1   --> A'             
     e( 23 - 23) =      5.49712  eV     1   --> A'             
     e( 24 - 24) =      6.10415  eV     1   --> A'             
     e( 25 - 25) =      6.84431  eV     1   --> A'             
     e( 26 - 26) =      7.16122  eV     1   --> A'             
     e( 27 - 27) =      7.51023  eV     1   --> A''            
     e( 28 - 28) =      7.85271  eV     1   --> A'             
     e( 29 - 29) =      8.25265  eV     1   --> A'             
     e( 30 - 30) =      9.11583  eV     1   --> A'             
     e( 31 - 31) =      9.84414  eV     1   --> A''            
     e( 32 - 32) =     10.01117  eV     1   --> A'             

 **************************************************************************

 **************************************************************************

                    xk=(   0.00000,   0.29714,   0.00000  )

     Band symmetry, C_s (m)     point group:

     e(  1 -  1) =    -87.58313  eV     1   --> A'             
     e(  2 -  2) =    -53.72437  eV     1   --> A'             
     e(  3 -  3) =    -53.72302  eV     1   --> A'             
     e(  4 -  4) =    -53.72106  eV     1   --> A''            
     e(  5 -  5) =    -17.97590  eV     1   --> A'             
     e(  6 -  6) =    -17.50559  eV     1   --> A'             
     e(  7 -  7) =     -7.33354  eV     1   --> A'             
     e(  8 -  8) =     -6.83447  eV     1   --> A'             
     e(  9 -  9) =     -6.14328  eV     1   --> A'             
     e( 10 - 10) =     -5.71404  eV     1   --> A''            
     e( 11 - 11) =     -5.12622  eV     1   --> A''            
     e( 12 - 12) =     -5.07295  eV     1   --> A'             
     e( 13 - 13) =     -2.27237  eV     1   --> A'             
     e( 14 - 14) =     -1.82364  eV     1   --> A''            
     e( 15 - 15) =     -1.37301  eV     1   --> A'             
     e( 16 - 16) =     -0.62285  eV     1   --> A'             
     e( 17 - 17) =     -0.50379  eV     1   --> A''            
     e( 18 - 18) =      3.37180  eV     1   --> A'             
     e( 19 - 19) =      3.70469  eV     1   --> A'             
     e( 20 - 20) =      4.16374  eV     1   --> A'             
     e( 21 - 21) =      4.49933  eV     1   --> A'             
     e( 22 - 22) =      5.00042  eV     1   --> A'             
     e( 23 - 23) =      5.55749  eV     1   --> A'             
     e( 24 - 24) =      6.18016  eV     1   --> A'             
     e( 25 - 25) =      6.88779  eV     1   --> A'             
     e( 26 - 26) =      7.12007  eV     1   --> A'             
     e( 27 - 27) =      7.51382  eV     1   --> A''            
     e( 28 - 28) =      7.86213  eV     1   --> A'             
     e( 29 - 29) =      8.30384  eV     1   --> A'             
     e( 30 - 30) =      9.11283  eV     1   --> A'             
     e( 31 - 31) =      9.92775  eV     1   --> A''            
     e( 32 - 32) =     10.07208  eV     1   --> A'             

 **************************************************************************

 **************************************************************************

                    xk=(   0.00000,   0.30856,   0.00000  )

     Band symmetry, C_s (m)     point group:

     e(  1 -  1) =    -87.58311  eV     1   --> A'             
     e(  2 -  2) =    -53.72464  eV     1   --> A'             
     e(  3 -  3) =    -53.72297  eV     1   --> A'             
     e(  4 -  4) =    -53.72112  eV     1   --> A''            
     e(  5 -  5) =    -17.95077  eV     1   --> A'             
     e(  6 -  6) =    -17.49661  eV     1   --> A'             
     e(  7 -  7) =     -7.34375  eV     1   --> A'             
     e(  8 -  8) =     -6.88431  eV     1   --> A'             
     e(  9 -  9) =     -6.18196  eV     1   --> A'             
     e( 10 - 10) =     -5.71645  eV     1   --> A''            
     e( 11 - 11) =     -5.15624  eV     1   --> A''            
     e( 12 - 12) =     -5.09437  eV     1   --> A'             
     e( 13 - 13) =     -2.27996  eV     1   --> A'             
     e( 14 - 14) =     -1.80751  eV     1   --> A''            
     e( 15 - 15) =     -1.36556  eV     1   --> A'             
     e( 16 - 16) =     -0.60680  eV     1   --> A'             
     e( 17 - 17) =     -0.50365  eV     1   --> A''            
     e( 18 - 18) =      3.43384  eV     1   --> A'             
     e( 19 - 19) =      3.68494  eV     1   --> A'             
     e( 20 - 20) =      4.22384  eV     1   --> A'             
     e( 21 - 21) =      4.55191  eV     1   --> A'             
     e( 22 - 22) =      5.04604  eV     1   --> A'             
     e( 23 - 23) =      5.61725  eV     1   --> A'             
     e( 24 - 24) =      6.25728  eV     1   --> A'             
     e( 25 - 25) =      6.93664  eV     1   --> A'             
     e( 26 - 26) =      7.07885  eV     1   --> A'             
     e( 27 - 27) =      7.51182  eV     1   --> A''            
     e( 28 - 28) =      7.87516  eV     1   --> A'             
     e( 29 - 29) =      8.36242  eV     1   --> A'             
     e( 30 - 30) =      9.11843  eV     1   --> A'             
     e( 31 - 31) =     10.01826  eV     1   --> A''            
     e( 32 - 32) =     10.13540  eV     1   --> A'             

 **************************************************************************

 **************************************************************************

                    xk=(   0.00000,   0.31999,   0.00000  )

     Band symmetry, C_s (m)     point group:

     e(  1 -  1) =    -87.58310  eV     1   --> A'             
     e(  2 -  2) =    -53.72490  eV     1   --> A'             
     e(  3 -  3) =    -53.72293  eV     1   --> A'             
     e(  4 -  4) =    -53.72119  eV     1   --> A''            
     e(  5 -  5) =    -17.92547  eV     1   --> A'             
     e(  6 -  6) =    -17.48784  eV     1   --> A'             
     e(  7 -  7) =     -7.36138  eV     1   --> A'             
     e(  8 -  8) =     -6.93084  eV     1   --> A'             
     e(  9 -  9) =     -6.21258  eV     1   --> A'             
     e( 10 - 10) =     -5.71880  eV     1   --> A''            
     e( 11 - 11) =     -5.18562  eV     1   --> A''            
     e( 12 - 12) =     -5.11726  eV     1   --> A'             
     e( 13 - 13) =     -2.28764  eV     1   --> A'             
     e( 14 - 14) =     -1.79215  eV     1   --> A''            
     e( 15 - 15) =     -1.35868  eV     1   --> A'             
     e( 16 - 16) =     -0.58889  eV     1   --> A'             
     e( 17 - 17) =     -0.50308  eV     1   --> A''            
     e( 18 - 18) =      3.48293  eV     1   --> A'             
     e( 19 - 19) =      3.66365  eV     1   --> A'             
     e( 20 - 20) =      4.28727  eV     1   --> A'             
     e( 21 - 21) =      4.61108  eV     1   --> A'             
     e( 22 - 22) =      5.09294  eV     1   --> A'             
     e( 23 - 23) =      5.67609  eV     1   --> A'             
     e( 24 - 24) =      6.33337  eV     1   --> A'             
     e( 25 - 25) =      6.99123  eV     1   --> A'             
     e( 26 - 26) =      7.03825  eV     1   --> A'             
     e( 27 - 27) =      7.50476  eV     1   --> A''            
     e( 28 - 28) =      7.89248  eV     1   --> A'             
     e( 29 - 29) =      8.42705  eV     1   --> A'             
     e( 30 - 30) =      9.13173  eV     1   --> A'             
     e( 31 - 31) =     10.11531  eV     1   --> A''            
     e( 32 - 32) =     10.20050  eV     1   --> A'             

 **************************************************************************

 **************************************************************************

                    xk=(   0.00000,   0.33142,   0.00000  )

     Band symmetry, C_s (m)     point group:

     e(  1 -  1) =    -87.58308  eV     1   --> A'             
     e(  2 -  2) =    -53.72516  eV     1   --> A'             
     e(  3 -  3) =    -53.72290  eV     1   --> A'             
     e(  4 -  4) =    -53.72124  eV     1   --> A''            
     e(  5 -  5) =    -17.90008  eV     1   --> A'             
     e(  6 -  6) =    -17.47933  eV     1   --> A'             
     e(  7 -  7) =     -7.38676  eV     1   --> A'             
     e(  8 -  8) =     -6.97351  eV     1   --> A'             
     e(  9 -  9) =     -6.23513  eV     1   --> A'             
     e( 10 - 10) =     -5.72109  eV     1   --> A''            
     e( 11 - 11) =     -5.21426  eV     1   --> A''            
     e( 12 - 12) =     -5.14148  eV     1   --> A'             
     e( 13 - 13) =     -2.29535  eV     1   --> A'             
     e( 14 - 14) =     -1.77757  eV     1   --> A''            
     e( 15 - 15) =     -1.35237  eV     1   --> A'             
     e( 16 - 16) =     -0.56939  eV     1   --> A'             
     e( 17 - 17) =     -0.50211  eV     1   --> A''            
     e( 18 - 18) =      3.50637  eV     1   --> A'             
     e( 19 - 19) =      3.65516  eV     1   --> A'             
     e( 20 - 20) =      4.35422  eV     1   --> A'             
     e( 21 - 21) =      4.67473  eV     1   --> A'             
     e( 22 - 22) =      5.14267  eV     1   --> A'             
     e( 23 - 23) =      5.73373  eV     1   --> A'             
     e( 24 - 24) =      6.40648  eV     1   --> A'             
     e( 25 - 25) =      6.99927  eV     1   --> A'             
     e( 26 - 26) =      7.05175  eV     1   --> A'             
     e( 27 - 27) =      7.49327  eV     1   --> A''            
     e( 28 - 28) =      7.91458  eV     1   --> A'             
     e( 29 - 29) =      8.49606  eV     1   --> A'             
     e( 30 - 30) =      9.15160  eV     1   --> A'             
     e( 31 - 31) =     10.21830  eV     1   --> A''            
     e( 32 - 32) =     10.26653  eV     1   --> A'             

 **************************************************************************

 **************************************************************************

                    xk=(   0.00000,   0.34285,   0.00000  )

     Band symmetry, C_s (m)     point group:

     e(  1 -  1) =    -87.58306  eV     1   --> A'             
     e(  2 -  2) =    -53.72539  eV     1   --> A'             
     e(  3 -  3) =    -53.72286  eV     1   --> A'             
     e(  4 -  4) =    -53.72131  eV     1   --> A''            
     e(  5 -  5) =    -17.87467  eV     1   --> A'             
     e(  6 -  6) =    -17.47114  eV     1   --> A'             
     e(  7 -  7) =     -7.41958  eV     1   --> A'             
     e(  8 -  8) =     -7.01221  eV     1   --> A'             
     e(  9 -  9) =     -6.24982  eV     1   --> A'             
     e( 10 - 10) =     -5.72328  eV     1   --> A''            
     e( 11 - 11) =     -5.24212  eV     1   --> A''            
     e( 12 - 12) =     -5.16688  eV     1   --> A'             
     e( 13 - 13) =     -2.30303  eV     1   --> A'             
     e( 14 - 14) =     -1.76374  eV     1   --> A''            
     e( 15 - 15) =     -1.34661  eV     1   --> A'             
     e( 16 - 16) =     -0.54852  eV     1   --> A'             
     e( 17 - 17) =     -0.50077  eV     1   --> A''            
     e( 18 - 18) =      3.49420  eV     1   --> A'             
     e( 19 - 19) =      3.67069  eV     1   --> A'             
     e( 20 - 20) =      4.42472  eV     1   --> A'             
     e( 21 - 21) =      4.74121  eV     1   --> A'             
     e( 22 - 22) =      5.19664  eV     1   --> A'             
     e( 23 - 23) =      5.78996  eV     1   --> A'             
     e( 24 - 24) =      6.47452  eV     1   --> A'             
     e( 25 - 25) =      6.96368  eV     1   --> A'             
     e( 26 - 26) =      7.11813  eV     1   --> A'             
     e( 27 - 27) =      7.47803  eV     1   --> A''            
     e( 28 - 28) =      7.94145  eV     1   --> A'             
     e( 29 - 29) =      8.56753  eV     1   --> A'             
     e( 30 - 30) =      9.17678  eV     1   --> A'             
     e( 31 - 31) =     10.32646  eV     1   --> A''            
     e( 32 - 32) =     10.33204  eV     1   --> A'             

 **************************************************************************

 **************************************************************************

                    xk=(   0.00000,   0.35428,   0.00000  )

     Band symmetry, C_s (m)     point group:

     e(  1 -  1) =    -87.58305  eV     1   --> A'             
     e(  2 -  2) =    -53.72564  eV     1   --> A'             
     e(  3 -  3) =    -53.72282  eV     1   --> A'             
     e(  4 -  4) =    -53.72137  eV     1   --> A''            
     e(  5 -  5) =    -17.84934  eV     1   --> A'             
     e(  6 -  6) =    -17.46332  eV     1   --> A'             
     e(  7 -  7) =     -7.45889  eV     1   --> A'             
     e(  8 -  8) =     -7.04728  eV     1   --> A'             
     e(  9 -  9) =     -6.25708  eV     1   --> A'             
     e( 10 - 10) =     -5.72536  eV     1   --> A''            
     e( 11 - 11) =     -5.26911  eV     1   --> A''            
     e( 12 - 12) =     -5.19334  eV     1   --> A'             
     e( 13 - 13) =     -2.31065  eV     1   --> A'             
     e( 14 - 14) =     -1.75071  eV     1   --> A''            
     e( 15 - 15) =     -1.34146  eV     1   --> A'             
     e( 16 - 16) =     -0.52656  eV     1   --> A'             
     e( 17 - 17) =     -0.49911  eV     1   --> A''            
     e( 18 - 18) =      3.45940  eV     1   --> A'             
     e( 19 - 19) =      3.69827  eV     1   --> A'             
     e( 20 - 20) =      4.49883  eV     1   --> A'             
     e( 21 - 21) =      4.80932  eV     1   --> A'             
     e( 22 - 22) =      5.25594  eV     1   --> A'             
     e( 23 - 23) =      5.84468  eV     1   --> A'             
     e( 24 - 24) =      6.53450  eV     1   --> A'             
     e( 25 - 25) =      6.93477  eV     1   --> A'             
     e( 26 - 26) =      7.19022  eV     1   --> A'             
     e( 27 - 27) =      7.45971  eV     1   --> A''            
     e( 28 - 28) =      7.97231  eV     1   --> A'             
     e( 29 - 29) =      8.63918  eV     1   --> A'             
     e( 30 - 30) =      9.20606  eV     1   --> A'             
     e( 31 - 31) =     10.39381  eV     1   --> A'             
     e( 32 - 32) =     10.43884  eV     1   --> A''            

 **************************************************************************

 **************************************************************************

                    xk=(   0.00000,   0.36571,   0.00000  )

     Band symmetry, C_s (m)     point group:

     e(  1 -  1) =    -87.58304  eV     1   --> A'             
     e(  2 -  2) =    -53.72589  eV     1   --> A'             
     e(  3 -  3) =    -53.72279  eV     1   --> A'             
     e(  4 -  4) =    -53.72143  eV     1   --> A''            
     e(  5 -  5) =    -17.82418  eV     1   --> A'             
     e(  6 -  6) =    -17.45593  eV     1   --> A'             
     e(  7 -  7) =     -7.50327  eV     1   --> A'             
     e(  8 -  8) =     -7.07931  eV     1   --> A'             
     e(  9 -  9) =     -6.25753  eV     1   --> A'             
     e( 10 - 10) =     -5.72731  eV     1   --> A''            
     e( 11 - 11) =     -5.29519  eV     1   --> A''            
     e( 12 - 12) =     -5.22070  eV     1   --> A'             
     e( 13 - 13) =     -2.31813  eV     1   --> A'             
     e( 14 - 14) =     -1.73846  eV     1   --> A''            
     e( 15 - 15) =     -1.33687  eV     1   --> A'             
     e( 16 - 16) =     -0.50374  eV     1   --> A'             
     e( 17 - 17) =     -0.49719  eV     1   --> A''            
     e( 18 - 18) =      3.41563  eV     1   --> A'             
     e( 19 - 19) =      3.72516  eV     1   --> A'             
     e( 20 - 20) =      4.57651  eV     1   --> A'             
     e( 21 - 21) =      4.87824  eV     1   --> A'             
     e( 22 - 22) =      5.32116  eV     1   --> A'             
     e( 23 - 23) =      5.89798  eV     1   --> A'             
     e( 24 - 24) =      6.58136  eV     1   --> A'             
     e( 25 - 25) =      6.91847  eV     1   --> A'             
     e( 26 - 26) =      7.26771  eV     1   --> A'             
     e( 27 - 27) =      7.43898  eV     1   --> A''            
     e( 28 - 28) =      8.00554  eV     1   --> A'             
     e( 29 - 29) =      8.70827  eV     1   --> A'             
     e( 30 - 30) =      9.23835  eV     1   --> A'             
     e( 31 - 31) =     10.44103  eV     1   --> A'             
     e( 32 - 32) =     10.55432  eV     1   --> A''            

 **************************************************************************

 **************************************************************************

                    xk=(   0.00000,   0.37713,   0.00000  )

     Band symmetry, C_s (m)     point group:

     e(  1 -  1) =    -87.58302  eV     1   --> A'             
     e(  2 -  2) =    -53.72613  eV     1   --> A'             
     e(  3 -  3) =    -53.72275  eV     1   --> A'             
     e(  4 -  4) =    -53.72147  eV     1   --> A''            
     e(  5 -  5) =    -17.79927  eV     1   --> A'             
     e(  6 -  6) =    -17.44902  eV     1   --> A'             
     e(  7 -  7) =     -7.55119  eV     1   --> A'             
[...]
     e( 24 - 24) =      6.07210  eV     1   --> A              
     e( 25 - 25) =      6.51975  eV     1   --> A              
     e( 26 - 26) =      6.88741  eV     1   --> B              
     e( 27 - 27) =      7.32728  eV     1   --> B              
     e( 28 - 28) =      8.34264  eV     1   --> A              
     e( 29 - 29) =      8.52397  eV     1   --> B              
     e( 30 - 30) =      9.13240  eV     1   --> A              
     e( 31 - 31) =      9.26195  eV     1   --> A              
     e( 32 - 32) =     10.38063  eV     1   --> B              

 **************************************************************************

 **************************************************************************

                    xk=(  -0.04619,   0.08000,   0.00000  )

     Band symmetry, C_2  (2)    point group:

     e(  1 -  1) =    -87.58334  eV     1   --> A              
     e(  2 -  2) =    -53.72358  eV     1   --> B              
     e(  3 -  3) =    -53.72042  eV     1   --> A              
     e(  4 -  4) =    -53.71996  eV     1   --> B              
     e(  5 -  5) =    -18.31868  eV     1   --> A              
     e(  6 -  6) =    -17.64752  eV     1   --> B              
     e(  7 -  7) =     -7.57291  eV     1   --> A              
     e(  8 -  8) =     -5.89126  eV     1   --> B              
     e(  9 -  9) =     -5.67874  eV     1   --> A              
     e( 10 - 10) =     -5.05275  eV     1   --> B              
     e( 11 - 11) =     -4.79831  eV     1   --> A              
     e( 12 - 12) =     -4.60115  eV     1   --> B              
     e( 13 - 13) =     -2.20938  eV     1   --> B              
     e( 14 - 14) =     -2.18226  eV     1   --> A              
     e( 15 - 15) =     -1.55952  eV     1   --> A              
     e( 16 - 16) =     -0.51482  eV     1   --> B              
     e( 17 - 17) =     -0.44680  eV     1   --> A              
     e( 18 - 18) =      2.02861  eV     1   --> A              
     e( 19 - 19) =      3.10564  eV     1   --> B              
     e( 20 - 20) =      3.29662  eV     1   --> A              
     e( 21 - 21) =      3.63425  eV     1   --> B              
     e( 22 - 22) =      4.18801  eV     1   --> A              
     e( 23 - 23) =      4.73389  eV     1   --> B              
     e( 24 - 24) =      6.09368  eV     1   --> A              
     e( 25 - 25) =      6.54044  eV     1   --> A              
     e( 26 - 26) =      6.85013  eV     1   --> B              
     e( 27 - 27) =      7.30620  eV     1   --> B              
     e( 28 - 28) =      8.37376  eV     1   --> A              
     e( 29 - 29) =      8.61532  eV     1   --> B              
     e( 30 - 30) =      9.10655  eV     1   --> A              
     e( 31 - 31) =      9.24509  eV     1   --> A              
     e( 32 - 32) =     10.46538  eV     1   --> B              

 **************************************************************************

 **************************************************************************

                    xk=(  -0.03959,   0.06857,   0.00000  )

     Band symmetry, C_2  (2)    point group:

     e(  1 -  1) =    -87.58335  eV     1   --> A              
     e(  2 -  2) =    -53.72362  eV     1   --> B              
     e(  3 -  3) =    -53.72028  eV     1   --> A              
     e(  4 -  4) =    -53.71993  eV     1   --> B              
     e(  5 -  5) =    -18.32984  eV     1   --> A              
     e(  6 -  6) =    -17.65261  eV     1   --> B              
     e(  7 -  7) =     -7.58569  eV     1   --> A              
     e(  8 -  8) =     -5.84230  eV     1   --> B              
     e(  9 -  9) =     -5.67696  eV     1   --> A              
     e( 10 - 10) =     -5.07398  eV     1   --> B              
     e( 11 - 11) =     -4.72686  eV     1   --> A              
     e( 12 - 12) =     -4.57709  eV     1   --> B              
     e( 13 - 13) =     -2.21773  eV     1   --> B              
     e( 14 - 14) =     -2.19550  eV     1   --> A              
     e( 15 - 15) =     -1.56962  eV     1   --> A              
     e( 16 - 16) =     -0.49469  eV     1   --> B              
     e( 17 - 17) =     -0.44086  eV     1   --> A              
     e( 18 - 18) =      1.97029  eV     1   --> A              
     e( 19 - 19) =      3.06612  eV     1   --> B              
     e( 20 - 20) =      3.26702  eV     1   --> A              
     e( 21 - 21) =      3.56661  eV     1   --> B              
     e( 22 - 22) =      4.16407  eV     1   --> A              
     e( 23 - 23) =      4.70918  eV     1   --> B              
     e( 24 - 24) =      6.10576  eV     1   --> A              
     e( 25 - 25) =      6.56880  eV     1   --> A              
     e( 26 - 26) =      6.81423  eV     1   --> B              
     e( 27 - 27) =      7.28972  eV     1   --> B              
     e( 28 - 28) =      8.40107  eV     1   --> A              
     e( 29 - 29) =      8.70361  eV     1   --> B              
     e( 30 - 30) =      9.08293  eV     1   --> A              
     e( 31 - 31) =      9.23098  eV     1   --> A              
     e( 32 - 32) =     10.53065  eV     1   --> B              

 **************************************************************************

 **************************************************************************

                    xk=(  -0.03299,   0.05714,   0.00000  )

     Band symmetry, C_2  (2)    point group:

     e(  1 -  1) =    -87.58336  eV     1   --> A              
     e(  2 -  2) =    -53.72363  eV     1   --> B              
     e(  3 -  3) =    -53.72017  eV     1   --> A              
     e(  4 -  4) =    -53.71991  eV     1   --> B              
     e(  5 -  5) =    -18.33935  eV     1   --> A              
     e(  6 -  6) =    -17.65696  eV     1   --> B              
     e(  7 -  7) =     -7.59667  eV     1   --> A              
     e(  8 -  8) =     -5.79700  eV     1   --> B              
     e(  9 -  9) =     -5.67558  eV     1   --> A              
     e( 10 - 10) =     -5.09572  eV     1   --> B              
     e( 11 - 11) =     -4.66359  eV     1   --> A              
     e( 12 - 12) =     -4.55649  eV     1   --> B              
     e( 13 - 13) =     -2.22490  eV     1   --> B              
     e( 14 - 14) =     -2.20793  eV     1   --> A              
     e( 15 - 15) =     -1.57850  eV     1   --> A              
     e( 16 - 16) =     -0.47574  eV     1   --> B              
     e( 17 - 17) =     -0.43592  eV     1   --> A              
     e( 18 - 18) =      1.91979  eV     1   --> A              
     e( 19 - 19) =      3.02980  eV     1   --> B              
     e( 20 - 20) =      3.24192  eV     1   --> A              
     e( 21 - 21) =      3.50975  eV     1   --> B              
     e( 22 - 22) =      4.14338  eV     1   --> A              
     e( 23 - 23) =      4.68820  eV     1   --> B              
     e( 24 - 24) =      6.11093  eV     1   --> A              
     e( 25 - 25) =      6.60089  eV     1   --> A              
     e( 26 - 26) =      6.78158  eV     1   --> B              
     e( 27 - 27) =      7.27676  eV     1   --> B              
     e( 28 - 28) =      8.42426  eV     1   --> A              
     e( 29 - 29) =      8.78641  eV     1   --> B              
     e( 30 - 30) =      9.06216  eV     1   --> A              
     e( 31 - 31) =      9.21951  eV     1   --> A              
     e( 32 - 32) =     10.56911  eV     1   --> B              

 **************************************************************************

 **************************************************************************

                    xk=(  -0.02639,   0.04571,   0.00000  )

     Band symmetry, C_2  (2)    point group:

     e(  1 -  1) =    -87.58336  eV     1   --> A              
     e(  2 -  2) =    -53.72364  eV     1   --> B              
     e(  3 -  3) =    -53.72004  eV     1   --> A              
     e(  4 -  4) =    -53.71988  eV     1   --> B              
     e(  5 -  5) =    -18.34716  eV     1   --> A              
     e(  6 -  6) =    -17.66055  eV     1   --> B              
     e(  7 -  7) =     -7.60575  eV     1   --> A              
     e(  8 -  8) =     -5.75647  eV     1   --> B              
     e(  9 -  9) =     -5.67454  eV     1   --> A              
     e( 10 - 10) =     -5.11691  eV     1   --> B              
     e( 11 - 11) =     -4.60975  eV     1   --> A              
     e( 12 - 12) =     -4.53947  eV     1   --> B              
     e( 13 - 13) =     -2.23084  eV     1   --> B              
     e( 14 - 14) =     -2.21908  eV     1   --> A              
     e( 15 - 15) =     -1.58600  eV     1   --> A              
     e( 16 - 16) =     -0.45878  eV     1   --> B              
     e( 17 - 17) =     -0.43195  eV     1   --> A              
     e( 18 - 18) =      1.87765  eV     1   --> A              
     e( 19 - 19) =      2.99766  eV     1   --> B              
     e( 20 - 20) =      3.22135  eV     1   --> A              
     e( 21 - 21) =      3.46383  eV     1   --> B              
     e( 22 - 22) =      4.12617  eV     1   --> A              
     e( 23 - 23) =      4.67098  eV     1   --> B              
     e( 24 - 24) =      6.11189  eV     1   --> A              
     e( 25 - 25) =      6.63266  eV     1   --> A              
     e( 26 - 26) =      6.75352  eV     1   --> B              
     e( 27 - 27) =      7.26666  eV     1   --> B              
     e( 28 - 28) =      8.44317  eV     1   --> A              
     e( 29 - 29) =      8.86086  eV     1   --> B              
     e( 30 - 30) =      9.04468  eV     1   --> A              
     e( 31 - 31) =      9.21053  eV     1   --> A              
     e( 32 - 32) =     10.58253  eV     1   --> B              

 **************************************************************************

 **************************************************************************

                    xk=(  -0.01979,   0.03428,   0.00000  )

     Band symmetry, C_2  (2)    point group:

     e(  1 -  1) =    -87.58336  eV     1   --> A              
     e(  2 -  2) =    -53.72363  eV     1   --> B              
     e(  3 -  3) =    -53.71994  eV     1   --> A              
     e(  4 -  4) =    -53.71984  eV     1   --> B              
     e(  5 -  5) =    -18.35327  eV     1   --> A              
     e(  6 -  6) =    -17.66336  eV     1   --> B              
     e(  7 -  7) =     -7.61287  eV     1   --> A              
     e(  8 -  8) =     -5.72210  eV     1   --> B              
     e(  9 -  9) =     -5.67378  eV     1   --> A              
     e( 10 - 10) =     -5.13619  eV     1   --> B              
     e( 11 - 11) =     -4.56646  eV     1   --> A              
     e( 12 - 12) =     -4.52613  eV     1   --> B              
     e( 13 - 13) =     -2.23548  eV     1   --> B              
     e( 14 - 14) =     -2.22844  eV     1   --> A              
     e( 15 - 15) =     -1.59196  eV     1   --> A              
     e( 16 - 16) =     -0.44463  eV     1   --> B              
     e( 17 - 17) =     -0.42891  eV     1   --> A              
     e( 18 - 18) =      1.84436  eV     1   --> A              
     e( 19 - 19) =      2.97088  eV     1   --> B              
     e( 20 - 20) =      3.20533  eV     1   --> A              
     e( 21 - 21) =      3.42869  eV     1   --> B              
     e( 22 - 22) =      4.11261  eV     1   --> A              
     e( 23 - 23) =      4.65756  eV     1   --> B              
     e( 24 - 24) =      6.11077  eV     1   --> A              
     e( 25 - 25) =      6.66074  eV     1   --> A              
     e( 26 - 26) =      6.73095  eV     1   --> B              
     e( 27 - 27) =      7.25903  eV     1   --> B              
     e( 28 - 28) =      8.45775  eV     1   --> A              
     e( 29 - 29) =      8.92378  eV     1   --> B              
     e( 30 - 30) =      9.03079  eV     1   --> A              
     e( 31 - 31) =      9.20385  eV     1   --> A              
     e( 32 - 32) =     10.58014  eV     1   --> B              

 **************************************************************************

 **************************************************************************

                    xk=(  -0.01320,   0.02286,   0.00000  )

     Band symmetry, C_2  (2)    point group:

     e(  1 -  1) =    -87.58335  eV     1   --> A              
     e(  2 -  2) =    -53.72362  eV     1   --> B              
     e(  3 -  4) =    -53.71985  eV     2   --> A              
     e(  3 -  4) =    -53.71985  eV     2   --> B              
     e(  5 -  5) =    -18.35764  eV     1   --> A              
     e(  6 -  6) =    -17.66538  eV     1   --> B              
     e(  7 -  7) =     -7.61800  eV     1   --> A              
     e(  8 -  8) =     -5.69557  eV     1   --> B              
     e(  9 -  9) =     -5.67327  eV     1   --> A              
     e( 10 - 10) =     -5.15190  eV     1   --> B              
     e( 11 - 11) =     -4.53473  eV     1   --> A              
     e( 12 - 12) =     -4.51654  eV     1   --> B              
     e( 13 - 13) =     -2.23880  eV     1   --> B              
     e( 14 - 14) =     -2.23554  eV     1   --> A              
     e( 15 - 15) =     -1.59630  eV     1   --> A              
     e( 16 - 16) =     -0.43394  eV     1   --> B              
     e( 17 - 17) =     -0.42677  eV     1   --> A              
     e( 18 - 18) =      1.82029  eV     1   --> A              
     e( 19 - 19) =      2.95069  eV     1   --> B              
     e( 20 - 20) =      3.19387  eV     1   --> A              
     e( 21 - 21) =      3.40398  eV     1   --> B              
     e( 22 - 22) =      4.10284  eV     1   --> A              
     e( 23 - 23) =      4.64796  eV     1   --> B              
     e( 24 - 24) =      6.10906  eV     1   --> A              
     e( 25 - 25) =      6.68256  eV     1   --> A              
     e( 26 - 26) =      6.71446  eV     1   --> B              
     e( 27 - 27) =      7.25368  eV     1   --> B              
     e( 28 - 28) =      8.46807  eV     1   --> A              
     e( 29 - 29) =      8.97190  eV     1   --> B              
     e( 30 - 30) =      9.02072  eV     1   --> A              
     e( 31 - 31) =      9.19926  eV     1   --> A              
     e( 32 - 32) =     10.57159  eV     1   --> B              

 **************************************************************************

 **************************************************************************

                    xk=(  -0.00660,   0.01143,   0.00000  )

     Band symmetry, C_2  (2)    point group:

     e(  1 -  1) =    -87.58334  eV     1   --> A              
     e(  2 -  2) =    -53.72362  eV     1   --> B              
     e(  3 -  4) =    -53.71978  eV     2   --> A              
     e(  3 -  4) =    -53.71978  eV     2   --> B              
     e(  5 -  5) =    -18.36028  eV     1   --> A              
     e(  6 -  6) =    -17.66660  eV     1   --> B              
     e(  7 -  7) =     -7.62108  eV     1   --> A              
     e(  8 -  8) =     -5.67868  eV     1   --> B              
     e(  9 -  9) =     -5.67297  eV     1   --> A              
     e( 10 - 10) =     -5.16230  eV     1   --> B              
     e( 11 - 11) =     -4.51536  eV     1   --> A              
     e( 12 - 12) =     -4.51077  eV     1   --> B              
     e( 13 - 13) =     -2.24080  eV     1   --> B              
     e( 14 - 14) =     -2.23997  eV     1   --> A              
     e( 15 - 15) =     -1.59895  eV     1   --> A              
     e( 16 - 16) =     -0.42730  eV     1   --> B              
     e( 17 - 17) =     -0.42548  eV     1   --> A              
     e( 18 - 18) =      1.80574  eV     1   --> A              
     e( 19 - 19) =      2.93810  eV     1   --> B              
     e( 20 - 20) =      3.18700  eV     1   --> A              
     e( 21 - 21) =      3.38933  eV     1   --> B              
     e( 22 - 22) =      4.09694  eV     1   --> A              
     e( 23 - 23) =      4.64219  eV     1   --> B              
     e( 24 - 24) =      6.10770  eV     1   --> A              
     e( 25 - 25) =      6.69635  eV     1   --> A              
     e( 26 - 26) =      6.70442  eV     1   --> B              
     e( 27 - 27) =      7.25050  eV     1   --> B              
     e( 28 - 28) =      8.47422  eV     1   --> A              
     e( 29 - 29) =      9.00222  eV     1   --> B              
     e( 30 - 30) =      9.01463  eV     1   --> A              
     e( 31 - 31) =      9.19658  eV     1   --> A              
     e( 32 - 32) =     10.56380  eV     1   --> B              

 **************************************************************************

 **************************************************************************

                    xk=(   0.00000,   0.00000,   0.00000  )

     point group D_3d (-3m) 
     there are  6 classes
     the character table:

       E     2C3   3C2'  i     2S6   3s_d 
A_1g   1.00  1.00  1.00  1.00  1.00  1.00
A_2g   1.00  1.00 -1.00  1.00  1.00 -1.00
E_g    2.00 -1.00  0.00  2.00 -1.00  0.00
A_1u   1.00  1.00  1.00 -1.00 -1.00 -1.00
A_2u   1.00  1.00 -1.00 -1.00 -1.00  1.00
E_u    2.00 -1.00  0.00 -2.00  1.00  0.00

     the symmetry operations in each class and the name of the first element:

     E        1
                                                                 
     2C3      3    4
                                                                 
     3C2'     2    5    6
                                                                 
     i        7
                                                                 
     2S6      9   10
                                                                 
     3s_d     8   11   12
                                                                 

     Band symmetry, D_3d (-3m)  point group:

     e(  1 -  1) =    -87.58334  eV     1   --> A_1g L_1       
     e(  2 -  2) =    -53.72361  eV     1   --> A_2u L_2'      
     e(  3 -  4) =    -53.71976  eV     2   --> E_u  L_3'      
     e(  5 -  5) =    -18.36115  eV     1   --> A_1g L_1       
     e(  6 -  6) =    -17.66700  eV     1   --> A_2u L_2'      
     e(  7 -  7) =     -7.62211  eV     1   --> A_1g L_1       
     e(  8 -  9) =     -5.67287  eV     2   --> E_g  L_3       
     e( 10 - 10) =     -5.16596  eV     1   --> A_2u L_2'      
     e( 11 - 12) =     -4.50884  eV     2   --> E_u  L_3'      
     e( 13 - 14) =     -2.24147  eV     2   --> E_g  L_3       
     e( 15 - 15) =     -1.59983  eV     1   --> A_1g L_1       
     e( 16 - 17) =     -0.42506  eV     2   --> E_g  L_3       
     e( 18 - 18) =      1.80087  eV     1   --> A_1g L_1       
     e( 19 - 19) =      2.93383  eV     1   --> A_2u L_2'      
     e( 20 - 20) =      3.18471  eV     1   --> A_1g L_1       
     e( 21 - 21) =      3.38449  eV     1   --> A_2u L_2'      
     e( 22 - 22) =      4.09497  eV     1   --> A_1g L_1       
     e( 23 - 23) =      4.64026  eV     1   --> A_2u L_2'      
     e( 24 - 24) =      6.10719  eV     1   --> A_1g L_1       
     e( 25 - 26) =      6.70106  eV     2   --> E_u  L_3'      
     e( 27 - 27) =      7.24945  eV     1   --> A_2u L_2'      
     e( 28 - 28) =      8.47626  eV     1   --> A_1g L_1       
     e( 29 - 30) =      9.01259  eV     2   --> E_g  L_3       
     e( 31 - 31) =      9.19571  eV     1   --> A_1g L_1       
     e( 32 - 32) =     10.56076  eV     1   --> A_2u L_2'      

 **************************************************************************
 
     BANDS        :   2m 9.91s CPU   2m32.11s WALL

 
   This run was terminated on:  21:45:10   9Feb2024            

=------------------------------------------------------------------------------=
   JOB DONE.
=------------------------------------------------------------------------------=
