
     Program PWSCF v.7.2 starts on  9Feb2024 at 21:31:18 

     This program is part of the open-source Quantum ESPRESSO suite
     for quantum simulation of materials; please cite
         "P. Giannozzi et al., J. Phys.:Condens. Matter 21 395502 (2009);
         "P. Giannozzi et al., J. Phys.:Condens. Matter 29 465901 (2017);
         "P. Giannozzi et al., J. Chem. Phys. 152 154105 (2020);
          URL http://www.quantum-espresso.org", 
     in publications or presentations arising from this work. More details at
     http://www.quantum-espresso.org/quote

     Parallel version (MPI), running on    10 processors

     MPI processes distributed on     1 nodes
     127544 MiB available memory on the printing compute node when the environment starts
 
     Waiting for input...
     Reading input from standard input

     Current dimensions of program PWSCF are:
     Max number of different atomic species (ntypx) = 10
     Max number of k-points (npk) =  40000
     Max angular momentum in pseudopotentials (lmaxx) =  4

     Atomic positions and unit cell read from directory:
     ./FeCl2.save/
     Atomic positions from file used, from input discarded
 
     file Fe.pbe-spn-kjpaw_psl.1.0.0.UPF: wavefunction(s)  3P 3D renormalized
     file Cl.pbe-n-kjpaw_psl.1.0.0.UPF: wavefunction(s)  3S 3P renormalized
 
     R & G space division:  proc/nbgrp/npool/nimage =      10
     Subspace diagonalization in iterative solution of the eigenvalue problem:
     a serial algorithm will be used

 
     Parallelization info
     --------------------
     sticks:   dense  smooth     PW     G-vecs:    dense   smooth      PW
     Min         240      95     28                54892    13869    2128
     Max         241      96     29                54923    13906    2137
     Sum        2407     955    283               549131   138869   21325
 
     Using Slab Decomposition
 


     bravais-lattice index     =            4
     lattice parameter (alat)  =       6.5573  a.u.
     unit-cell volume          =    1436.7762 (a.u.)^3
     number of atoms/cell      =            3
     number of atomic types    =            2
     number of electrons       =        30.00
     number of Kohn-Sham states=           32
     kinetic-energy cutoff     =      80.0000  Ry
     charge density cutoff     =     800.0000  Ry
     Exchange-correlation= SLA  PW   PBX  PBC
                           (   1   4   3   4   0   0   0)

     celldm(1)=   6.557350  celldm(2)=   0.000000  celldm(3)=   5.763689
     celldm(4)=   0.000000  celldm(5)=   0.000000  celldm(6)=   0.000000

     crystal axes: (cart. coord. in units of alat)
               a(1) = (   1.010384   0.000000   0.000000 )  
               a(2) = (  -0.505192   0.875018   0.000000 )  
               a(3) = (   0.000000   0.000000   5.763689 )  

     reciprocal axes: (cart. coord. in units 2 pi/alat)
               b(1) = (  0.989723  0.571417  0.000000 )  
               b(2) = (  0.000000  1.142833  0.000000 )  
               b(3) = (  0.000000  0.000000  0.173500 )  


     PseudoPot. # 1 for Fe read from file:
     ./Fe.pbe-spn-kjpaw_psl.1.0.0.UPF
     MD5 check sum: fc81f059e5c5069939230b1155715ae8
     Pseudo is Projector augmented-wave + core cor, Zval = 16.0
     Generated using &quot;atomic&quot; code by A. Dal Corso  v.6.3
     Shape of augmentation charge: PSQ
     Using radial grid of 1191 points,  6 beta functions with: 
                l(1) =   0
                l(2) =   0
                l(3) =   1
                l(4) =   1
                l(5) =   2
                l(6) =   2
     Q(r) pseudized with 0 coefficients 


     PseudoPot. # 2 for Cl read from file:
     ./Cl.pbe-n-kjpaw_psl.1.0.0.UPF
     MD5 check sum: 530da96d25dcb7781b0586ca00827062
     Pseudo is Projector augmented-wave + core cor, Zval =  7.0
     Generated using &quot;atomic&quot; code by A. Dal Corso  v.6.3
     Shape of augmentation charge: PSQ
     Using radial grid of 1157 points,  6 beta functions with: 
                l(1) =   0
                l(2) =   0
                l(3) =   1
                l(4) =   1
                l(5) =   2
                l(6) =   2
     Q(r) pseudized with 0 coefficients 


     atomic species   valence    mass     pseudopotential
        Fe            16.00    55.84700     Fe( 1.00)
        Cl             7.00    35.45270     Cl( 1.00)

     Starting magnetic structure 
     atomic species   magnetization
        Fe           0.500
        Cl           0.000

     12 Sym. Ops., with inversion, found



   Cartesian axes

     site n.     atom                  positions (alat units)
         1           Fe  tau(   1) = (   0.0000000   0.0000000   2.8818444  )
         2           Cl  tau(   2) = (  -0.0000000   0.5833454   2.4755773  )
         3           Cl  tau(   3) = (   0.5051921   0.2916727   3.2881115  )

     number of k points=   151  Marzari-Vanderbilt smearing, width (Ry)=  0.0100

     Number of k-points >= 100: set verbosity='high' to print them.

     Dense  grid:   549131 G-vectors     FFT dimensions: (  60,  60, 360)

     Smooth grid:   138869 G-vectors     FFT dimensions: (  40,  40, 216)

     Estimated max dynamical RAM per process >     189.44 MB

     Estimated total dynamical RAM >       1.85 GB
     Generating pointlists ...
     new r_m :   0.2932 (alat units)  1.9229 (a.u.) for type    1
     new r_m :   0.2932 (alat units)  1.9229 (a.u.) for type    2

     The potential is recalculated from file :
     ./FeCl2.save/charge-density


     negative rho (up, down):  1.509E-04 2.998E-04
     Starting wfcs are   18 randomized atomic wfcs +   14 random wfcs
     Checking if some PAW data can be deallocated... 

     Band Structure Calculation
     Davidson diagonalization with overlap
     c_bands:  1 eigenvalues not converged
     c_bands:  1 eigenvalues not converged
     c_bands:  1 eigenvalues not converged

     ethr =  3.33E-11,  avg # of iterations = 53.4

     total cpu time spent up to now is      556.5 secs

     End of band structure calculation

     Number of k-points >= 100: set verbosity='high' to print the bands.

     Writing all to output data dir ./FeCl2.save/
 
     init_run     :      2.47s CPU      3.13s WALL (       1 calls)
     electrons    :    521.68s CPU    552.23s WALL (       1 calls)

     Called by init_run:
     wfcinit      :      0.00s CPU      0.02s WALL (       1 calls)
     potinit      :      0.48s CPU      0.81s WALL (       1 calls)
     hinit0       :      1.33s CPU      1.54s WALL (       1 calls)

     Called by electrons:
     c_bands      :    521.68s CPU    552.23s WALL (       1 calls)
     v_of_rho     :      0.22s CPU      0.25s WALL (       1 calls)
     newd         :      0.43s CPU      0.51s WALL (       1 calls)
     PAW_pot      :      0.20s CPU      0.22s WALL (       1 calls)

     Called by c_bands:
     init_us_2    :      0.22s CPU      0.26s WALL (     302 calls)
     init_us_2:cp :      0.22s CPU      0.26s WALL (     302 calls)
     cegterg      :    475.77s CPU    481.90s WALL (     951 calls)

     Called by *egterg:
     cdiaghg      :     26.89s CPU     27.03s WALL (   16415 calls)
     h_psi        :    337.96s CPU    342.88s WALL (   17366 calls)
     s_psi        :     14.59s CPU     14.66s WALL (   17366 calls)
     g_psi        :      3.06s CPU      3.07s WALL (   16113 calls)

     Called by h_psi:
     h_psi:calbec :     20.71s CPU     21.02s WALL (   17366 calls)
     vloc_psi     :    301.04s CPU    305.59s WALL (   17366 calls)
     add_vuspsi   :     14.42s CPU     14.49s WALL (   17366 calls)

     General routines
     calbec       :     20.65s CPU     20.97s WALL (   17366 calls)
     fft          :      0.18s CPU      0.29s WALL (      23 calls)
     ffts         :      0.01s CPU      0.01s WALL (       2 calls)
     fftw         :    211.87s CPU    215.51s WALL (  514658 calls)
     interpolate  :      0.02s CPU      0.02s WALL (       2 calls)
     davcio       :      0.22s CPU     24.58s WALL (     604 calls)
 
     Parallel routines
 
     PWSCF        :   8m48.09s CPU   9m50.30s WALL

 
   This run was terminated on:  21:41: 8   9Feb2024            

=------------------------------------------------------------------------------=
   JOB DONE.
=------------------------------------------------------------------------------=
