
     Program PROJWFC v.7.2 starts on  9Feb2024 at 21:44:36 

     This program is part of the open-source Quantum ESPRESSO suite
     for quantum simulation of materials; please cite
         "P. Giannozzi et al., J. Phys.:Condens. Matter 21 395502 (2009);
         "P. Giannozzi et al., J. Phys.:Condens. Matter 29 465901 (2017);
         "P. Giannozzi et al., J. Chem. Phys. 152 154105 (2020);
          URL http://www.quantum-espresso.org", 
     in publications or presentations arising from this work. More details at
     http://www.quantum-espresso.org/quote

     Parallel version (MPI), running on    10 processors

     MPI processes distributed on     1 nodes
     R & G space division:  proc/nbgrp/npool/nimage =      10
     127622 MiB available memory on the printing compute node when the environment starts
 

     Reading xml data from directory:

     ./FeCl2.save/
     file Fe.pbe-spn-kjpaw_psl.1.0.0.UPF: wavefunction(s)  3P 3D renormalized
     file Cl.pbe-n-kjpaw_psl.1.0.0.UPF: wavefunction(s)  3S 3P renormalized

     IMPORTANT: XC functional enforced from input :
     Exchange-correlation= PBE
                           (   1   4   3   4   0   0   0)
     Any further DFT definition will be discarded
     Please, verify this is what you really want

 
     Parallelization info
     --------------------
     sticks:   dense  smooth     PW     G-vecs:    dense   smooth      PW
     Min         240      95     28                54892    13869    2128
     Max         241      96     29                54923    13906    2137
     Sum        2407     955    283               549131   138869   21325
 
     Using Slab Decomposition
 

     negative rho (up, down):  1.509E-04 2.998E-04

     Gaussian broadening (read from file): ngauss,degauss=  -1    0.010000


     Calling projwave .... 
     Subspace diagonalization in iterative solution of the eigenvalue problem:
     a serial algorithm will be used

 
  Problem Sizes 
  natomwfc =           18
  nbnd     =           32
  nkstot   =          302
  npwx     =         1747
  nkb      =           54
 

     Atomic states used for projection
     (read from pseudopotential files):

     state #   1: atom   1 (Fe ), wfc  1 (l=0 m= 1)
     state #   2: atom   1 (Fe ), wfc  2 (l=0 m= 1)
     state #   3: atom   1 (Fe ), wfc  3 (l=1 m= 1)
     state #   4: atom   1 (Fe ), wfc  3 (l=1 m= 2)
     state #   5: atom   1 (Fe ), wfc  3 (l=1 m= 3)
     state #   6: atom   1 (Fe ), wfc  4 (l=2 m= 1)
     state #   7: atom   1 (Fe ), wfc  4 (l=2 m= 2)
     state #   8: atom   1 (Fe ), wfc  4 (l=2 m= 3)
     state #   9: atom   1 (Fe ), wfc  4 (l=2 m= 4)
     state #  10: atom   1 (Fe ), wfc  4 (l=2 m= 5)
     state #  11: atom   2 (Cl ), wfc  1 (l=0 m= 1)
     state #  12: atom   2 (Cl ), wfc  2 (l=1 m= 1)
     state #  13: atom   2 (Cl ), wfc  2 (l=1 m= 2)
     state #  14: atom   2 (Cl ), wfc  2 (l=1 m= 3)
     state #  15: atom   3 (Cl ), wfc  1 (l=0 m= 1)
     state #  16: atom   3 (Cl ), wfc  2 (l=1 m= 1)
     state #  17: atom   3 (Cl ), wfc  2 (l=1 m= 2)
     state #  18: atom   3 (Cl ), wfc  2 (l=1 m= 3)

 k =   0.0000000000  0.0000000000  0.0000000000
==== e(   1) =   -91.60392 eV ==== 
     psi = 0.994*[#   1]+0.002*[#   2]+0.002*[#  12]+0.002*[#  16]
    |psi|^2 = 1.000
==== e(   2) =   -57.71513 eV ==== 
     psi = 0.999*[#   3]
    |psi|^2 = 1.000
==== e(   3) =   -57.62202 eV ==== 
     psi = 0.500*[#   4]+0.500*[#   5]
    |psi|^2 = 1.000
==== e(   4) =   -57.62202 eV ==== 
     psi = 0.500*[#   4]+0.500*[#   5]
    |psi|^2 = 1.000
==== e(   5) =   -18.57508 eV ==== 
     psi = 0.371*[#  11]+0.371*[#  15]+0.249*[#   2]+0.003*[#  12]+0.003*[#  16]
          +0.002*[#   1]
    |psi|^2 = 0.999
==== e(   6) =   -17.87144 eV ==== 
     psi = 0.498*[#  11]+0.498*[#  15]
    |psi|^2 = 0.997
==== e(   7) =    -8.11238 eV ==== 
     psi = 0.337*[#  12]+0.337*[#  16]+0.186*[#   6]+0.073*[#   2]+0.029*[#  11]
          +0.029*[#  15]+0.003*[#   1]
    |psi|^2 = 0.995
==== e(   8) =    -7.01378 eV ==== 
     psi = 0.202*[#   9]+0.202*[#  10]+0.102*[#   7]+0.102*[#   8]+0.097*[#  13]
          +0.097*[#  14]+0.097*[#  17]+0.097*[#  18]
    |psi|^2 = 0.995
==== e(   9) =    -7.01378 eV ==== 
     psi = 0.202*[#   9]+0.202*[#  10]+0.102*[#   7]+0.102*[#   8]+0.097*[#  13]
          +0.097*[#  14]+0.097*[#  17]+0.097*[#  18]
    |psi|^2 = 0.995
==== e(  10) =    -5.34809 eV ==== 
     psi = 0.498*[#  12]+0.498*[#  16]
    |psi|^2 = 0.997
==== e(  11) =    -5.09421 eV ==== 
     psi = 0.324*[#   7]+0.324*[#   8]+0.174*[#   9]+0.174*[#  10]
    |psi|^2 = 0.996
==== e(  12) =    -5.09421 eV ==== 
     psi = 0.324*[#   7]+0.324*[#   8]+0.174*[#   9]+0.174*[#  10]
    |psi|^2 = 0.996
==== e(  13) =    -4.97599 eV ==== 
     psi = 0.810*[#   6]+0.073*[#  12]+0.073*[#  16]+0.026*[#   2]+0.007*[#  11]
          +0.007*[#  15]
    |psi|^2 = 0.996
==== e(  14) =    -4.70638 eV ==== 
     psi = 0.248*[#  13]+0.248*[#  14]+0.248*[#  17]+0.248*[#  18]
    |psi|^2 = 0.992
==== e(  15) =    -4.70638 eV ==== 
     psi = 0.248*[#  13]+0.248*[#  14]+0.248*[#  17]+0.248*[#  18]
    |psi|^2 = 0.992
==== e(  16) =    -3.01714 eV ==== 
     psi = 0.152*[#  13]+0.152*[#  14]+0.152*[#  17]+0.152*[#  18]+0.122*[#   9]
          +0.122*[#  10]+0.072*[#   7]+0.072*[#   8]
    |psi|^2 = 0.998
==== e(  17) =    -3.01714 eV ==== 
     psi = 0.152*[#  13]+0.152*[#  14]+0.152*[#  17]+0.152*[#  18]+0.122*[#   9]
          +0.122*[#  10]+0.072*[#   7]+0.072*[#   8]
    |psi|^2 = 0.998
==== e(  18) =     1.38987 eV ==== 
     psi = 0.576*[#   2]+0.082*[#  11]+0.082*[#  15]+0.071*[#  12]+0.071*[#  16]
          
    |psi|^2 = 0.881
==== e(  19) =     2.77175 eV ==== 
 
    |psi|^2 = 0.001
==== e(  20) =     3.11338 eV ==== 
     psi = 0.027*[#   2]+0.004*[#  11]+0.004*[#  15]+0.003*[#  12]+0.003*[#  16]
          
    |psi|^2 = 0.041
==== e(  21) =     3.22553 eV ==== 
 
    |psi|^2 = 0.001
==== e(  22) =     3.94330 eV ==== 
     psi = 0.033*[#   2]+0.005*[#  11]+0.005*[#  15]+0.004*[#  12]+0.004*[#  16]
          +0.001*[#   6]
    |psi|^2 = 0.052
==== e(  23) =     4.60183 eV ==== 
 
    |psi|^2 = 0.000
==== e(  24) =     6.00760 eV ==== 
     psi = 0.005*[#   2]
    |psi|^2 = 0.009
==== e(  25) =     6.24148 eV ==== 
     psi = 0.001*[#  13]+0.001*[#  14]+0.001*[#  17]+0.001*[#  18]
    |psi|^2 = 0.005
==== e(  26) =     6.24148 eV ==== 
     psi = 0.001*[#  13]+0.001*[#  14]+0.001*[#  17]+0.001*[#  18]
    |psi|^2 = 0.005
==== e(  27) =     7.20852 eV ==== 
 
    |psi|^2 = 0.000
==== e(  28) =     7.96817 eV ==== 
     psi = 0.006*[#   2]+0.005*[#  12]+0.005*[#  16]
    |psi|^2 = 0.018
==== e(  29) =     8.60146 eV ==== 
     psi = 0.001*[#   7]+0.001*[#   8]
    |psi|^2 = 0.004
==== e(  30) =     8.60146 eV ==== 
     psi = 0.001*[#   7]+0.001*[#   8]
    |psi|^2 = 0.004
==== e(  31) =     9.09050 eV ==== 
 
    |psi|^2 = 0.002
==== e(  32) =    10.51497 eV ==== 
 
    |psi|^2 = 0.000

 k =   0.0000000000  0.0114283331  0.0000000000
==== e(   1) =   -91.60392 eV ==== 
     psi = 0.994*[#   1]+0.002*[#   2]+0.002*[#  12]+0.002*[#  16]
    |psi|^2 = 1.000
==== e(   2) =   -57.71514 eV ==== 
     psi = 0.999*[#   3]
    |psi|^2 = 1.000
==== e(   3) =   -57.62204 eV ==== 
     psi = 0.500*[#   4]+0.500*[#   5]
    |psi|^2 = 1.000
==== e(   4) =   -57.62203 eV ==== 
     psi = 0.500*[#   4]+0.500*[#   5]
    |psi|^2 = 1.000
==== e(   5) =   -18.57442 eV ==== 
     psi = 0.371*[#  11]+0.371*[#  15]+0.249*[#   2]+0.003*[#  12]+0.003*[#  16]
          +0.002*[#   1]
    |psi|^2 = 0.999
==== e(   6) =   -17.87116 eV ==== 
     psi = 0.498*[#  11]+0.498*[#  15]
    |psi|^2 = 0.997
==== e(   7) =    -8.11151 eV ==== 
     psi = 0.337*[#  12]+0.337*[#  16]+0.186*[#   6]+0.073*[#   2]+0.029*[#  11]
          +0.029*[#  15]+0.003*[#   1]
    |psi|^2 = 0.995
==== e(   8) =    -7.01521 eV ==== 
     psi = 0.202*[#   9]+0.202*[#  10]+0.102*[#   7]+0.102*[#   8]+0.097*[#  13]
          +0.097*[#  14]+0.097*[#  17]+0.097*[#  18]
    |psi|^2 = 0.995
==== e(   9) =    -7.01355 eV ==== 
     psi = 0.202*[#   9]+0.202*[#  10]+0.102*[#   7]+0.102*[#   8]+0.097*[#  13]
          +0.097*[#  14]+0.097*[#  17]+0.097*[#  18]
    |psi|^2 = 0.995
==== e(  10) =    -5.34674 eV ==== 
     psi = 0.498*[#  12]+0.498*[#  16]
    |psi|^2 = 0.997
==== e(  11) =    -5.09777 eV ==== 
     psi = 0.321*[#   7]+0.321*[#   8]+0.172*[#   9]+0.172*[#  10]+0.002*[#  13]
          +0.002*[#  14]+0.002*[#  17]+0.002*[#  18]
    |psi|^2 = 0.996
==== e(  12) =    -5.09732 eV ==== 
     psi = 0.321*[#   7]+0.321*[#   8]+0.173*[#   9]+0.173*[#  10]+0.002*[#  13]
          +0.002*[#  14]+0.002*[#  17]+0.002*[#  18]
    |psi|^2 = 0.996
==== e(  13) =    -4.98039 eV ==== 
     psi = 0.797*[#   6]+0.071*[#  12]+0.071*[#  16]+0.026*[#   2]+0.007*[#  11]
          +0.007*[#  15]+0.004*[#  13]+0.004*[#  14]+0.004*[#  17]+0.004*[#  18]
          
    |psi|^2 = 0.996
==== e(  14) =    -4.70389 eV ==== 
     psi = 0.246*[#  13]+0.246*[#  14]+0.246*[#  17]+0.246*[#  18]+0.002*[#   7]
          +0.002*[#   8]+0.002*[#   9]+0.002*[#  10]
    |psi|^2 = 0.992
==== e(  15) =    -4.70255 eV ==== 
     psi = 0.242*[#  13]+0.242*[#  14]+0.242*[#  17]+0.242*[#  18]+0.013*[#   6]
          +0.002*[#   7]+0.002*[#   8]+0.002*[#  12]+0.002*[#  16]+0.002*[#   9]
          +0.002*[#  10]
    |psi|^2 = 0.992
==== e(  16) =    -3.02001 eV ==== 
     psi = 0.152*[#  13]+0.152*[#  14]+0.152*[#  17]+0.152*[#  18]+0.122*[#   9]
          +0.122*[#  10]+0.072*[#   7]+0.072*[#   8]
    |psi|^2 = 0.998
==== e(  17) =    -3.01771 eV ==== 
     psi = 0.152*[#  13]+0.152*[#  14]+0.152*[#  17]+0.152*[#  18]+0.122*[#   9]
          +0.122*[#  10]+0.072*[#   7]+0.072*[#   8]
    |psi|^2 = 0.998
==== e(  18) =     1.39368 eV ==== 
     psi = 0.576*[#   2]+0.081*[#  11]+0.081*[#  15]+0.071*[#  12]+0.071*[#  16]
          
    |psi|^2 = 0.881
==== e(  19) =     2.77552 eV ==== 
 
    |psi|^2 = 0.001
==== e(  20) =     3.11500 eV ==== 
     psi = 0.027*[#   2]+0.004*[#  11]+0.004*[#  15]+0.003*[#  12]+0.003*[#  16]
          
    |psi|^2 = 0.041
==== e(  21) =     3.22819 eV ==== 
 
    |psi|^2 = 0.001
==== e(  22) =     3.94457 eV ==== 
     psi = 0.033*[#   2]+0.005*[#  11]+0.005*[#  15]+0.004*[#  12]+0.004*[#  16]
          +0.001*[#   6]
    |psi|^2 = 0.052
==== e(  23) =     4.60319 eV ==== 
 
    |psi|^2 = 0.000
==== e(  24) =     6.00536 eV ==== 
     psi = 0.004*[#   2]
    |psi|^2 = 0.009
==== e(  25) =     6.24061 eV ==== 
     psi = 0.001*[#  13]+0.001*[#  14]+0.001*[#  17]+0.001*[#  18]
    |psi|^2 = 0.005
==== e(  26) =     6.24379 eV ==== 
     psi = 0.001*[#  13]+0.001*[#  14]+0.001*[#  17]+0.001*[#  18]
    |psi|^2 = 0.005
==== e(  27) =     7.20900 eV ==== 
 
    |psi|^2 = 0.000
==== e(  28) =     7.96692 eV ==== 
     psi = 0.006*[#   2]+0.005*[#  12]+0.005*[#  16]
    |psi|^2 = 0.018
==== e(  29) =     8.59427 eV ==== 
     psi = 0.001*[#   7]+0.001*[#   8]
    |psi|^2 = 0.004
==== e(  30) =     8.60320 eV ==== 
     psi = 0.001*[#   7]+0.001*[#   8]
    |psi|^2 = 0.004
==== e(  31) =     9.09152 eV ==== 
 
    |psi|^2 = 0.002
==== e(  32) =    10.51478 eV ==== 
 
    |psi|^2 = 0.000

 k =   0.0000000000  0.0228566661  0.0000000000
==== e(   1) =   -91.60392 eV ==== 
     psi = 0.994*[#   1]+0.002*[#   2]+0.002*[#  12]+0.002*[#  16]
    |psi|^2 = 1.000
==== e(   2) =   -57.71515 eV ==== 
     psi = 0.999*[#   3]
    |psi|^2 = 1.000
==== e(   3) =   -57.62210 eV ==== 
     psi = 0.500*[#   4]+0.500*[#   5]
    |psi|^2 = 1.000
==== e(   4) =   -57.62205 eV ==== 
     psi = 0.500*[#   4]+0.500*[#   5]
    |psi|^2 = 1.000
==== e(   5) =   -18.57243 eV ==== 
     psi = 0.372*[#  11]+0.372*[#  15]+0.248*[#   2]+0.003*[#  12]+0.003*[#  16]
          +0.002*[#   1]
    |psi|^2 = 0.999
==== e(   6) =   -17.87030 eV ==== 
     psi = 0.498*[#  11]+0.498*[#  15]
    |psi|^2 = 0.997
==== e(   7) =    -8.10887 eV ==== 
     psi = 0.337*[#  12]+0.337*[#  16]+0.185*[#   6]+0.073*[#   2]+0.029*[#  11]
          +0.029*[#  15]+0.003*[#   1]
    |psi|^2 = 0.995
==== e(   8) =    -7.01948 eV ==== 
     psi = 0.201*[#   9]+0.201*[#  10]+0.101*[#   7]+0.101*[#   8]+0.097*[#  13]
          +0.097*[#  14]+0.097*[#  17]+0.097*[#  18]+0.001*[#  12]+0.001*[#  16]
          
    |psi|^2 = 0.995
==== e(   9) =    -7.01285 eV ==== 
     psi = 0.201*[#   9]+0.201*[#  10]+0.102*[#   7]+0.102*[#   8]+0.097*[#  13]
          +0.097*[#  14]+0.097*[#  17]+0.097*[#  18]
    |psi|^2 = 0.995
==== e(  10) =    -5.34272 eV ==== 
     psi = 0.497*[#  12]+0.497*[#  16]
    |psi|^2 = 0.997
==== e(  11) =    -5.10939 eV ==== 
     psi = 0.309*[#   7]+0.309*[#   8]+0.164*[#   9]+0.164*[#  10]+0.010*[#  13]
          +0.010*[#  14]+0.010*[#  17]+0.010*[#  18]+0.009*[#   6]
    |psi|^2 = 0.996
==== e(  12) =    -5.10640 eV ==== 
     psi = 0.314*[#   7]+0.314*[#   8]+0.168*[#   9]+0.168*[#  10]+0.008*[#  13]
          +0.008*[#  14]+0.008*[#  17]+0.008*[#  18]
    |psi|^2 = 0.996
==== e(  13) =    -4.99152 eV ==== 
     psi = 0.758*[#   6]+0.066*[#  12]+0.066*[#  16]+0.026*[#   2]+0.011*[#  13]
          +0.011*[#  14]+0.011*[#  17]+0.011*[#  18]+0.007*[#  11]+0.007*[#  15]
          +0.007*[#   7]+0.007*[#   8]+0.004*[#   9]+0.004*[#  10]
    |psi|^2 = 0.996
==== e(  14) =    -4.69667 eV ==== 
     psi = 0.240*[#  13]+0.240*[#  14]+0.240*[#  17]+0.240*[#  18]+0.009*[#   7]
          +0.009*[#   8]+0.007*[#   9]+0.007*[#  10]
    |psi|^2 = 0.992
==== e(  15) =    -4.69209 eV ==== 
     psi = 0.227*[#  13]+0.227*[#  14]+0.227*[#  17]+0.227*[#  18]+0.043*[#   6]
          +0.008*[#   7]+0.008*[#   8]+0.007*[#  12]+0.007*[#  16]+0.006*[#   9]
          +0.006*[#  10]
    |psi|^2 = 0.993
==== e(  16) =    -3.02859 eV ==== 
     psi = 0.152*[#  13]+0.152*[#  14]+0.152*[#  17]+0.152*[#  18]+0.123*[#   9]
          +0.123*[#  10]+0.072*[#   7]+0.072*[#   8]
    |psi|^2 = 0.998
==== e(  17) =    -3.01944 eV ==== 
     psi = 0.152*[#  13]+0.152*[#  14]+0.152*[#  17]+0.152*[#  18]+0.122*[#   9]
          +0.122*[#  10]+0.073*[#   7]+0.073*[#   8]
    |psi|^2 = 0.998
==== e(  18) =     1.40505 eV ==== 
     psi = 0.576*[#   2]+0.081*[#  11]+0.081*[#  15]+0.070*[#  12]+0.070*[#  16]
          
    |psi|^2 = 0.881
==== e(  19) =     2.78673 eV ==== 
 
    |psi|^2 = 0.002
==== e(  20) =     3.11984 eV ==== 
     psi = 0.027*[#   2]+0.004*[#  11]+0.004*[#  15]+0.003*[#  12]+0.003*[#  16]
          
    |psi|^2 = 0.042
==== e(  21) =     3.23620 eV ==== 
 
    |psi|^2 = 0.001
==== e(  22) =     3.94837 eV ==== 
     psi = 0.033*[#   2]+0.005*[#  11]+0.005*[#  15]+0.004*[#  12]+0.004*[#  16]
          +0.001*[#   6]
    |psi|^2 = 0.053
==== e(  23) =     4.60727 eV ==== 
 
    |psi|^2 = 0.000
==== e(  24) =     5.99829 eV ==== 
     psi = 0.004*[#   2]
    |psi|^2 = 0.008
==== e(  25) =     6.23844 eV ==== 
     psi = 0.001*[#  13]+0.001*[#  14]+0.001*[#  17]+0.001*[#  18]
    |psi|^2 = 0.005
==== e(  26) =     6.25069 eV ==== 
     psi = 0.001*[#  13]+0.001*[#  14]+0.001*[#  17]+0.001*[#  18]
    |psi|^2 = 0.005
==== e(  27) =     7.21043 eV ==== 
 
    |psi|^2 = 0.000
==== e(  28) =     7.96318 eV ==== 
     psi = 0.006*[#   2]+0.005*[#  12]+0.005*[#  16]
    |psi|^2 = 0.018
==== e(  29) =     8.57308 eV ==== 
     psi = 0.001*[#   7]+0.001*[#   8]
    |psi|^2 = 0.004
==== e(  30) =     8.60840 eV ==== 
     psi = 0.001*[#   7]+0.001*[#   8]
    |psi|^2 = 0.004
==== e(  31) =     9.09455 eV ==== 
 
    |psi|^2 = 0.002
==== e(  32) =    10.51235 eV ==== 
 
    |psi|^2 = 0.000

 k =   0.0000000000  0.0342849992  0.0000000000
==== e(   1) =   -91.60392 eV ==== 
     psi = 0.994*[#   1]+0.002*[#   2]+0.002*[#  12]+0.002*[#  16]
    |psi|^2 = 1.000
==== e(   2) =   -57.71515 eV ==== 
     psi = 0.999*[#   3]
    |psi|^2 = 1.000
==== e(   3) =   -57.62214 eV ==== 
     psi = 0.500*[#   4]+0.500*[#   5]
    |psi|^2 = 1.000
==== e(   4) =   -57.62206 eV ==== 
     psi = 0.500*[#   4]+0.500*[#   5]
    |psi|^2 = 1.000
==== e(   5) =   -18.56912 eV ==== 
     psi = 0.372*[#  11]+0.372*[#  15]+0.247*[#   2]+0.003*[#  12]+0.003*[#  16]
          +0.002*[#   1]
    |psi|^2 = 0.999
==== e(   6) =   -17.86888 eV ==== 
     psi = 0.498*[#  11]+0.498*[#  15]
    |psi|^2 = 0.997
==== e(   7) =    -8.10450 eV ==== 
     psi = 0.337*[#  12]+0.337*[#  16]+0.185*[#   6]+0.074*[#   2]+0.029*[#  11]
          +0.029*[#  15]+0.003*[#   1]
    |psi|^2 = 0.995
==== e(   8) =    -7.02649 eV ==== 
     psi = 0.200*[#   9]+0.200*[#  10]+0.100*[#   7]+0.100*[#   8]+0.097*[#  13]
          +0.097*[#  14]+0.097*[#  17]+0.097*[#  18]+0.003*[#  12]+0.003*[#  16]
          
    |psi|^2 = 0.995
==== e(   9) =    -7.01166 eV ==== 
     psi = 0.201*[#   9]+0.201*[#  10]+0.103*[#   7]+0.103*[#   8]+0.097*[#  13]
          +0.097*[#  14]+0.097*[#  17]+0.097*[#  18]
    |psi|^2 = 0.995
==== e(  10) =    -5.33615 eV ==== 
     psi = 0.495*[#  12]+0.495*[#  16]+0.001*[#  13]+0.001*[#  14]+0.001*[#  17]
          +0.001*[#  18]
    |psi|^2 = 0.997
==== e(  11) =    -5.13120 eV ==== 
     psi = 0.281*[#   7]+0.281*[#   8]+0.147*[#   9]+0.147*[#  10]+0.035*[#   6]
          +0.024*[#  13]+0.024*[#  14]+0.024*[#  17]+0.024*[#  18]+0.002*[#  12]
          +0.002*[#  16]+0.002*[#   2]
    |psi|^2 = 0.995
==== e(  12) =    -5.12069 eV ==== 
     psi = 0.303*[#   7]+0.303*[#   8]+0.162*[#   9]+0.162*[#  10]+0.016*[#  13]
          +0.016*[#  14]+0.016*[#  17]+0.016*[#  18]
    |psi|^2 = 0.996
==== e(  13) =    -5.00474 eV ==== 
     psi = 0.695*[#   6]+0.059*[#  12]+0.059*[#  16]+0.026*[#   7]+0.026*[#   8]
          +0.025*[#   2]+0.015*[#  13]+0.015*[#  14]+0.015*[#  17]+0.015*[#  18]
          +0.015*[#   9]+0.015*[#  10]+0.007*[#  11]+0.007*[#  15]
    |psi|^2 = 0.996
==== e(  14) =    -4.68543 eV ==== 
     psi = 0.232*[#  13]+0.232*[#  14]+0.232*[#  17]+0.232*[#  18]+0.019*[#   7]
          +0.019*[#   8]+0.014*[#   9]+0.014*[#  10]
    |psi|^2 = 0.992
==== e(  15) =    -4.67733 eV ==== 
     psi = 0.208*[#  13]+0.208*[#  14]+0.208*[#  17]+0.208*[#  18]+0.080*[#   6]
          +0.016*[#   7]+0.016*[#   8]+0.012*[#  12]+0.012*[#  16]+0.012*[#   9]
          +0.012*[#  10]
    |psi|^2 = 0.993
==== e(  16) =    -3.04268 eV ==== 
     psi = 0.151*[#  13]+0.151*[#  14]+0.151*[#  17]+0.151*[#  18]+0.123*[#   9]
          +0.123*[#  10]+0.073*[#   7]+0.073*[#   8]
    |psi|^2 = 0.997
==== e(  17) =    -3.02225 eV ==== 
     psi = 0.152*[#  13]+0.152*[#  14]+0.152*[#  17]+0.152*[#  18]+0.121*[#   9]
          +0.121*[#  10]+0.073*[#   7]+0.073*[#   8]
    |psi|^2 = 0.998
==== e(  18) =     1.42388 eV ==== 
     psi = 0.575*[#   2]+0.080*[#  11]+0.080*[#  15]+0.070*[#  12]+0.070*[#  16]
          
    |psi|^2 = 0.880
==== e(  19) =     2.80500 eV ==== 
 
    |psi|^2 = 0.002
==== e(  20) =     3.12791 eV ==== 
     psi = 0.027*[#   2]+0.004*[#  11]+0.004*[#  15]+0.003*[#  12]+0.003*[#  16]
          
    |psi|^2 = 0.042
==== e(  21) =     3.24975 eV ==== 
 
    |psi|^2 = 0.001
==== e(  22) =     3.95464 eV ==== 
     psi = 0.033*[#   2]+0.005*[#  11]+0.005*[#  15]+0.004*[#  12]+0.004*[#  16]
          +0.001*[#   6]
    |psi|^2 = 0.053
==== e(  23) =     4.61406 eV ==== 
 
    |psi|^2 = 0.000
==== e(  24) =     5.98549 eV ==== 
     psi = 0.004*[#   2]
    |psi|^2 = 0.008
==== e(  25) =     6.23622 eV ==== 
     psi = 0.001*[#  13]+0.001*[#  14]+0.001*[#  17]+0.001*[#  18]
    |psi|^2 = 0.006
==== e(  26) =     6.26212 eV ==== 
     psi = 0.001*[#  13]+0.001*[#  14]+0.001*[#  17]+0.001*[#  18]
    |psi|^2 = 0.005
==== e(  27) =     7.21279 eV ==== 
 
    |psi|^2 = 0.000
==== e(  28) =     7.95692 eV ==== 
     psi = 0.005*[#   2]+0.005*[#  12]+0.005*[#  16]
    |psi|^2 = 0.018
==== e(  29) =     8.53895 eV ==== 
     psi = 0.001*[#   7]+0.001*[#   8]
    |psi|^2 = 0.004
==== e(  30) =     8.61704 eV ==== 
     psi = 0.001*[#   7]+0.001*[#   8]
    |psi|^2 = 0.004
==== e(  31) =     9.09957 eV ==== 
 
    |psi|^2 = 0.002
==== e(  32) =    10.50172 eV ==== 
 
    |psi|^2 = 0.001

 k =   0.0000000000  0.0457133322  0.0000000000
==== e(   1) =   -91.60392 eV ==== 
     psi = 0.994*[#   1]+0.002*[#   2]+0.002*[#  12]+0.002*[#  16]
    |psi|^2 = 1.000
==== e(   2) =   -57.71513 eV ==== 
     psi = 0.999*[#   3]
    |psi|^2 = 1.000
==== e(   3) =   -57.62219 eV ==== 
     psi = 0.500*[#   4]+0.500*[#   5]
    |psi|^2 = 1.000
==== e(   4) =   -57.62207 eV ==== 
     psi = 0.500*[#   4]+0.500*[#   5]
    |psi|^2 = 1.000
==== e(   5) =   -18.56450 eV ==== 
     psi = 0.372*[#  11]+0.372*[#  15]+0.246*[#   2]+0.003*[#  12]+0.003*[#  16]
          +0.002*[#   1]
    |psi|^2 = 0.999
==== e(   6) =   -17.86690 eV ==== 
     psi = 0.498*[#  11]+0.498*[#  15]
    |psi|^2 = 0.997
==== e(   7) =    -8.09839 eV ==== 
     psi = 0.337*[#  12]+0.337*[#  16]+0.184*[#   6]+0.074*[#   2]+0.029*[#  11]
          +0.029*[#  15]+0.003*[#   1]
    |psi|^2 = 0.995
==== e(   8) =    -7.03612 eV ==== 
     psi = 0.199*[#   9]+0.199*[#  10]+0.099*[#   7]+0.099*[#   8]+0.097*[#  13]
          +0.097*[#  14]+0.097*[#  17]+0.097*[#  18]+0.006*[#  12]+0.006*[#  16]
          
    |psi|^2 = 0.995
==== e(   9) =    -7.01000 eV ==== 
     psi = 0.200*[#   9]+0.200*[#  10]+0.103*[#   7]+0.103*[#   8]+0.097*[#  13]
          +0.097*[#  14]+0.097*[#  17]+0.097*[#  18]
    |psi|^2 = 0.995
==== e(  10) =    -5.32724 eV ==== 
     psi = 0.491*[#  12]+0.491*[#  16]+0.002*[#  13]+0.002*[#  14]+0.002*[#  17]
          +0.002*[#  18]+0.002*[#   7]+0.002*[#   8]
    |psi|^2 = 0.997
==== e(  11) =    -5.16461 eV ==== 
     psi = 0.243*[#   7]+0.243*[#   8]+0.125*[#   9]+0.125*[#  10]+0.074*[#   6]
          +0.042*[#  13]+0.042*[#  14]+0.042*[#  17]+0.042*[#  18]+0.005*[#   2]
          +0.005*[#  12]+0.005*[#  16]+0.001*[#  11]+0.001*[#  15]
    |psi|^2 = 0.995
==== e(  12) =    -5.13932 eV ==== 
     psi = 0.291*[#   7]+0.291*[#   8]+0.155*[#   9]+0.155*[#  10]+0.026*[#  13]
          +0.026*[#  14]+0.026*[#  17]+0.026*[#  18]
    |psi|^2 = 0.996
==== e(  13) =    -5.01620 eV ==== 
     psi = 0.621*[#   6]+0.056*[#   7]+0.056*[#   8]+0.052*[#  12]+0.052*[#  16]
          +0.032*[#   9]+0.032*[#  10]+0.024*[#   2]+0.015*[#  13]+0.015*[#  14]
          +0.015*[#  17]+0.015*[#  18]+0.006*[#  11]+0.006*[#  15]
    |psi|^2 = 0.996
==== e(  14) =    -4.67108 eV ==== 
     psi = 0.222*[#  13]+0.222*[#  14]+0.222*[#  17]+0.222*[#  18]+0.029*[#   7]
          +0.029*[#   8]+0.023*[#   9]+0.023*[#  10]
    |psi|^2 = 0.993
==== e(  15) =    -4.66049 eV ==== 
     psi = 0.189*[#  13]+0.189*[#  14]+0.189*[#  17]+0.189*[#  18]+0.116*[#   6]
          +0.024*[#   7]+0.024*[#   8]+0.018*[#  12]+0.018*[#  16]+0.018*[#   9]
          +0.018*[#  10]
    |psi|^2 = 0.993
==== e(  16) =    -3.06206 eV ==== 
     psi = 0.150*[#  13]+0.150*[#  14]+0.150*[#  17]+0.150*[#  18]+0.124*[#   9]
          +0.124*[#  10]+0.074*[#   7]+0.074*[#   8]
    |psi|^2 = 0.997
==== e(  17) =    -3.02612 eV ==== 
     psi = 0.152*[#  13]+0.152*[#  14]+0.152*[#  17]+0.152*[#  18]+0.120*[#   9]
          +0.120*[#  10]+0.074*[#   7]+0.074*[#   8]
    |psi|^2 = 0.998
==== e(  18) =     1.44994 eV ==== 
     psi = 0.574*[#   2]+0.080*[#  11]+0.080*[#  15]+0.069*[#  12]+0.069*[#  16]
          +0.002*[#  13]+0.002*[#  14]+0.002*[#  17]+0.002*[#  18]
    |psi|^2 = 0.879
==== e(  19) =     2.82975 eV ==== 
 
    |psi|^2 = 0.002
==== e(  20) =     3.13917 eV ==== 
     psi = 0.028*[#   2]+0.004*[#  11]+0.004*[#  15]+0.003*[#  12]+0.003*[#  16]
          
    |psi|^2 = 0.043
==== e(  21) =     3.26912 eV ==== 
 
    |psi|^2 = 0.001
==== e(  22) =     3.96334 eV ==== 
     psi = 0.034*[#   2]+0.005*[#  11]+0.005*[#  15]+0.004*[#  12]+0.004*[#  16]
          +0.001*[#   6]
    |psi|^2 = 0.054
==== e(  23) =     4.62355 eV ==== 
 
    |psi|^2 = 0.000
==== e(  24) =     5.96587 eV ==== 
     psi = 0.003*[#   2]
    |psi|^2 = 0.008
==== e(  25) =     6.23559 eV ==== 
     psi = 0.002*[#   2]
    |psi|^2 = 0.006
==== e(  26) =     6.27798 eV ==== 
     psi = 0.001*[#  13]+0.001*[#  14]+0.001*[#  17]+0.001*[#  18]
    |psi|^2 = 0.005
==== e(  27) =     7.21599 eV ==== 
 
    |psi|^2 = 0.000
==== e(  28) =     7.94811 eV ==== 
     psi = 0.005*[#   2]+0.005*[#  12]+0.005*[#  16]
    |psi|^2 = 0.017
==== e(  29) =     8.49351 eV ==== 
     psi = 0.001*[#   7]+0.001*[#   8]
    |psi|^2 = 0.004
==== e(  30) =     8.62906 eV ==== 
     psi = 0.001*[#   7]+0.001*[#   8]
    |psi|^2 = 0.004
==== e(  31) =     9.10652 eV ==== 
 
    |psi|^2 = 0.002
==== e(  32) =    10.47352 eV ==== 
 
    |psi|^2 = 0.001

 k =   0.0000000000  0.0571416653  0.0000000000
==== e(   1) =   -91.60392 eV ==== 
     psi = 0.994*[#   1]+0.002*[#   2]+0.002*[#  12]+0.002*[#  16]
    |psi|^2 = 1.000
==== e(   2) =   -57.71514 eV ==== 
     psi = 0.999*[#   3]
    |psi|^2 = 1.000
==== e(   3) =   -57.62226 eV ==== 
     psi = 0.500*[#   4]+0.500*[#   5]
    |psi|^2 = 1.000
==== e(   4) =   -57.62209 eV ==== 
     psi = 0.500*[#   4]+0.500*[#   5]
    |psi|^2 = 1.000
==== e(   5) =   -18.55858 eV ==== 
     psi = 0.373*[#  11]+0.373*[#  15]+0.245*[#   2]+0.003*[#  12]+0.003*[#  16]
          +0.002*[#   1]
    |psi|^2 = 0.999
==== e(   6) =   -17.86436 eV ==== 
     psi = 0.498*[#  11]+0.498*[#  15]
    |psi|^2 = 0.997
==== e(   7) =    -8.09058 eV ==== 
     psi = 0.337*[#  12]+0.337*[#  16]+0.184*[#   6]+0.074*[#   2]+0.029*[#  11]
          +0.029*[#  15]+0.003*[#   1]
    |psi|^2 = 0.995
==== e(   8) =    -7.04824 eV ==== 
     psi = 0.198*[#   9]+0.198*[#  10]+0.097*[#   7]+0.097*[#   8]+0.097*[#  13]
          +0.097*[#  14]+0.097*[#  17]+0.097*[#  18]+0.009*[#  12]+0.009*[#  16]
          
    |psi|^2 = 0.995
==== e(   9) =    -7.00789 eV ==== 
     psi = 0.199*[#   9]+0.199*[#  10]+0.104*[#   7]+0.104*[#   8]+0.097*[#  13]
          +0.097*[#  14]+0.097*[#  17]+0.097*[#  18]
    |psi|^2 = 0.995
==== e(  10) =    -5.31637 eV ==== 
     psi = 0.486*[#  12]+0.486*[#  16]+0.004*[#  13]+0.004*[#  14]+0.004*[#  17]
          +0.004*[#  18]+0.004*[#   7]+0.004*[#   8]
    |psi|^2 = 0.997
==== e(  11) =    -5.20871 eV ==== 
     psi = 0.204*[#   7]+0.204*[#   8]+0.109*[#   6]+0.103*[#   9]+0.103*[#  10]
          +0.061*[#  13]+0.061*[#  14]+0.061*[#  17]+0.061*[#  18]+0.008*[#   2]
          +0.008*[#  12]+0.008*[#  16]+0.002*[#  11]+0.002*[#  15]
    |psi|^2 = 0.995
==== e(  12) =    -5.16138 eV ==== 
     psi = 0.278*[#   7]+0.278*[#   8]+0.148*[#   9]+0.148*[#  10]+0.036*[#  13]
          +0.036*[#  14]+0.036*[#  17]+0.036*[#  18]
    |psi|^2 = 0.995
==== e(  13) =    -5.02489 eV ==== 
     psi = 0.555*[#   6]+0.086*[#   7]+0.086*[#   8]+0.048*[#   9]+0.048*[#  10]
          +0.046*[#  12]+0.046*[#  16]+0.022*[#   2]+0.012*[#  13]+0.012*[#  14]
          +0.012*[#  17]+0.012*[#  18]+0.006*[#  11]+0.006*[#  15]
    |psi|^2 = 0.996
==== e(  14) =    -4.65455 eV ==== 
     psi = 0.212*[#  13]+0.212*[#  14]+0.212*[#  17]+0.212*[#  18]+0.040*[#   7]
          +0.040*[#   8]+0.032*[#   9]+0.032*[#  10]
    |psi|^2 = 0.993
==== e(  15) =    -4.64315 eV ==== 
     psi = 0.172*[#  13]+0.172*[#  14]+0.172*[#  17]+0.172*[#  18]+0.147*[#   6]
          +0.031*[#   7]+0.031*[#   8]+0.024*[#   9]+0.024*[#  10]+0.024*[#  12]
          +0.024*[#  16]
    |psi|^2 = 0.994
==== e(  16) =    -3.08638 eV ==== 
     psi = 0.148*[#  13]+0.148*[#  14]+0.148*[#  17]+0.148*[#  18]+0.125*[#   9]
          +0.125*[#  10]+0.075*[#   7]+0.075*[#   8]+0.001*[#  12]+0.001*[#  16]
          
    |psi|^2 = 0.996
==== e(  17) =    -3.03099 eV ==== 
     psi = 0.152*[#  13]+0.152*[#  14]+0.152*[#  17]+0.152*[#  18]+0.119*[#   9]
          +0.119*[#  10]+0.075*[#   7]+0.075*[#   8]
    |psi|^2 = 0.998
==== e(  18) =     1.48295 eV ==== 
     psi = 0.572*[#   2]+0.079*[#  11]+0.079*[#  15]+0.069*[#  12]+0.069*[#  16]
          +0.002*[#  13]+0.002*[#  14]+0.002*[#  17]+0.002*[#  18]
    |psi|^2 = 0.877
==== e(  19) =     2.86016 eV ==== 
 
    |psi|^2 = 0.002
==== e(  20) =     3.15360 eV ==== 
     psi = 0.028*[#   2]+0.004*[#  11]+0.004*[#  15]+0.003*[#  12]+0.003*[#  16]
          
    |psi|^2 = 0.044
==== e(  21) =     3.29466 eV ==== 
 
    |psi|^2 = 0.002
==== e(  22) =     3.97435 eV ==== 
     psi = 0.034*[#   2]+0.005*[#  11]+0.005*[#  15]+0.004*[#  12]+0.004*[#  16]
          +0.001*[#   6]
    |psi|^2 = 0.055
==== e(  23) =     4.63570 eV ==== 
 
    |psi|^2 = 0.000
==== e(  24) =     5.93869 eV ==== 
     psi = 0.002*[#   2]
    |psi|^2 = 0.008
==== e(  25) =     6.23798 eV ==== 
     psi = 0.002*[#   2]
    |psi|^2 = 0.007
==== e(  26) =     6.29811 eV ==== 
     psi = 0.001*[#  13]+0.001*[#  14]+0.001*[#  17]+0.001*[#  18]
    |psi|^2 = 0.006
==== e(  27) =     7.21992 eV ==== 
 
    |psi|^2 = 0.000
==== e(  28) =     7.93673 eV ==== 
     psi = 0.005*[#   2]+0.005*[#  12]+0.005*[#  16]
    |psi|^2 = 0.017
==== e(  29) =     8.43872 eV ==== 
     psi = 0.001*[#   7]+0.001*[#   8]
    |psi|^2 = 0.004
==== e(  30) =     8.64438 eV ==== 
     psi = 0.001*[#   7]+0.001*[#   8]
    |psi|^2 = 0.004
==== e(  31) =     9.11533 eV ==== 
 
    |psi|^2 = 0.001
==== e(  32) =    10.42079 eV ==== 
 
    |psi|^2 = 0.002

 k =   0.0000000000  0.0685699983  0.0000000000
==== e(   1) =   -91.60391 eV ==== 
     psi = 0.994*[#   1]+0.002*[#   2]+0.002*[#  12]+0.002*[#  16]
    |psi|^2 = 1.000
==== e(   2) =   -57.71515 eV ==== 
     psi = 0.999*[#   3]
    |psi|^2 = 1.000
==== e(   3) =   -57.62235 eV ==== 
     psi = 0.500*[#   4]+0.500*[#   5]
    |psi|^2 = 1.000
==== e(   4) =   -57.62212 eV ==== 
     psi = 0.500*[#   4]+0.500*[#   5]
    |psi|^2 = 1.000
==== e(   5) =   -18.55137 eV ==== 
     psi = 0.374*[#  11]+0.374*[#  15]+0.243*[#   2]+0.003*[#  12]+0.003*[#  16]
          +0.002*[#   1]
    |psi|^2 = 0.999
==== e(   6) =   -17.86128 eV ==== 
     psi = 0.497*[#  11]+0.497*[#  15]
    |psi|^2 = 0.997
==== e(   7) =    -8.08109 eV ==== 
     psi = 0.337*[#  12]+0.337*[#  16]+0.183*[#   6]+0.075*[#   2]+0.029*[#  11]
          +0.029*[#  15]+0.003*[#   1]
    |psi|^2 = 0.994
==== e(   8) =    -7.06263 eV ==== 
     psi = 0.196*[#   9]+0.196*[#  10]+0.097*[#  13]+0.097*[#  14]+0.097*[#  17]
          +0.097*[#  18]+0.096*[#   7]+0.096*[#   8]+0.012*[#  12]+0.012*[#  16]
          
    |psi|^2 = 0.995
==== e(   9) =    -7.00535 eV ==== 
     psi = 0.197*[#   9]+0.197*[#  10]+0.105*[#   7]+0.105*[#   8]+0.098*[#  13]
          +0.098*[#  14]+0.098*[#  17]+0.098*[#  18]
    |psi|^2 = 0.995
==== e(  10) =    -5.30481 eV ==== 
     psi = 0.463*[#  12]+0.463*[#  16]+0.015*[#   7]+0.015*[#   8]+0.009*[#  13]
          +0.009*[#  14]+0.009*[#  17]+0.009*[#  18]+0.005*[#   6]
    |psi|^2 = 0.997
==== e(  11) =    -5.26055 eV ==== 
     psi = 0.164*[#   7]+0.164*[#   8]+0.129*[#   6]+0.085*[#   9]+0.085*[#  10]
          +0.074*[#  13]+0.074*[#  14]+0.074*[#  17]+0.074*[#  18]+0.027*[#  12]
          +0.027*[#  16]+0.011*[#   2]+0.003*[#  11]+0.003*[#  15]
    |psi|^2 = 0.994
==== e(  12) =    -5.18608 eV ==== 
     psi = 0.266*[#   7]+0.266*[#   8]+0.142*[#   9]+0.142*[#  10]+0.045*[#  13]
          +0.045*[#  14]+0.045*[#  17]+0.045*[#  18]
    |psi|^2 = 0.995
==== e(  13) =    -5.03142 eV ==== 
     psi = 0.506*[#   6]+0.109*[#   7]+0.109*[#   8]+0.060*[#   9]+0.060*[#  10]
          +0.041*[#  12]+0.041*[#  16]+0.020*[#   2]+0.009*[#  13]+0.009*[#  14]
          +0.009*[#  17]+0.009*[#  18]+0.005*[#  11]+0.005*[#  15]
    |psi|^2 = 0.996
==== e(  14) =    -4.63668 eV ==== 
     psi = 0.203*[#  13]+0.203*[#  14]+0.203*[#  17]+0.203*[#  18]+0.050*[#   7]
          +0.050*[#   8]+0.041*[#   9]+0.041*[#  10]
    |psi|^2 = 0.993
==== e(  15) =    -4.62628 eV ==== 
     psi = 0.173*[#   6]+0.157*[#  13]+0.157*[#  14]+0.157*[#  17]+0.157*[#  18]
          +0.037*[#   7]+0.037*[#   8]+0.030*[#   9]+0.030*[#  10]+0.029*[#  12]
          +0.029*[#  16]
    |psi|^2 = 0.994
==== e(  16) =    -3.11519 eV ==== 
     psi = 0.146*[#  13]+0.146*[#  14]+0.146*[#  17]+0.146*[#  18]+0.126*[#   9]
          +0.126*[#  10]+0.076*[#   7]+0.076*[#   8]+0.002*[#  12]+0.002*[#  16]
          
    |psi|^2 = 0.995
==== e(  17) =    -3.03679 eV ==== 
     psi = 0.152*[#  13]+0.152*[#  14]+0.152*[#  17]+0.152*[#  18]+0.118*[#   9]
          +0.118*[#  10]+0.077*[#   7]+0.077*[#   8]
    |psi|^2 = 0.998
==== e(  18) =     1.52256 eV ==== 
     psi = 0.571*[#   2]+0.077*[#  11]+0.077*[#  15]+0.068*[#  12]+0.068*[#  16]
          +0.003*[#  13]+0.003*[#  14]+0.003*[#  17]+0.003*[#  18]
    |psi|^2 = 0.875
==== e(  19) =     2.89525 eV ==== 
 
    |psi|^2 = 0.002
==== e(  20) =     3.17117 eV ==== 
     psi = 0.029*[#   2]+0.004*[#  11]+0.004*[#  15]+0.003*[#  12]+0.003*[#  16]
          
    |psi|^2 = 0.046
==== e(  21) =     3.32684 eV ==== 
 
    |psi|^2 = 0.002
==== e(  22) =     3.98755 eV ==== 
     psi = 0.035*[#   2]+0.005*[#  11]+0.005*[#  15]+0.004*[#  12]+0.004*[#  16]
          +0.001*[#   6]
    |psi|^2 = 0.056
==== e(  23) =     4.65050 eV ==== 
 
    |psi|^2 = 0.000
==== e(  24) =     5.90399 eV ==== 
     psi = 0.002*[#   2]
    |psi|^2 = 0.008
==== e(  25) =     6.24427 eV ==== 
     psi = 0.003*[#   2]
    |psi|^2 = 0.007
==== e(  26) =     6.32233 eV ==== 
     psi = 0.001*[#  13]+0.001*[#  14]+0.001*[#  17]+0.001*[#  18]
    |psi|^2 = 0.006
==== e(  27) =     7.22440 eV ==== 
 
    |psi|^2 = 0.000
==== e(  28) =     7.92270 eV ==== 
     psi = 0.005*[#  12]+0.005*[#  16]+0.005*[#   2]
    |psi|^2 = 0.016
==== e(  29) =     8.37673 eV ==== 
     psi = 0.001*[#   7]+0.001*[#   8]
    |psi|^2 = 0.004
==== e(  30) =     8.66291 eV ==== 
     psi = 0.001*[#   7]+0.001*[#   8]
    |psi|^2 = 0.004
==== e(  31) =     9.12593 eV ==== 
 
    |psi|^2 = 0.001
==== e(  32) =    10.34559 eV ==== 
 
    |psi|^2 = 0.002

 k =   0.0000000000  0.0799983314  0.0000000000
==== e(   1) =   -91.60391 eV ==== 
     psi = 0.994*[#   1]+0.002*[#   2]+0.002*[#  12]+0.002*[#  16]
    |psi|^2 = 1.000
==== e(   2) =   -57.71513 eV ==== 
     psi = 0.999*[#   3]
    |psi|^2 = 1.000
==== e(   3) =   -57.62244 eV ==== 
     psi = 0.500*[#   4]+0.500*[#   5]
    |psi|^2 = 1.000
==== e(   4) =   -57.62217 eV ==== 
     psi = 0.500*[#   4]+0.500*[#   5]
    |psi|^2 = 1.000
==== e(   5) =   -18.54289 eV ==== 
     psi = 0.375*[#  11]+0.375*[#  15]+0.241*[#   2]+0.003*[#  12]+0.003*[#  16]
          +0.002*[#   1]
    |psi|^2 = 0.999
==== e(   6) =   -17.85768 eV ==== 
     psi = 0.497*[#  11]+0.497*[#  15]
    |psi|^2 = 0.997
==== e(   7) =    -8.06995 eV ==== 
     psi = 0.337*[#  12]+0.337*[#  16]+0.182*[#   6]+0.075*[#   2]+0.029*[#  11]
          +0.029*[#  15]+0.003*[#   1]
    |psi|^2 = 0.994
==== e(   8) =    -7.07910 eV ==== 
     psi = 0.194*[#   9]+0.194*[#  10]+0.097*[#  13]+0.097*[#  14]+0.097*[#  17]
          +0.097*[#  18]+0.093*[#   7]+0.093*[#   8]+0.016*[#  12]+0.016*[#  16]
          
    |psi|^2 = 0.995
==== e(   9) =    -7.00238 eV ==== 
     psi = 0.196*[#   9]+0.196*[#  10]+0.106*[#   7]+0.106*[#   8]+0.098*[#  13]
          +0.098*[#  14]+0.098*[#  17]+0.098*[#  18]
    |psi|^2 = 0.995
==== e(  10) =    -5.32611 eV ==== 
     psi = 0.152*[#   7]+0.152*[#   8]+0.132*[#   6]+0.084*[#  13]+0.084*[#  14]
          +0.084*[#  17]+0.084*[#  18]+0.058*[#   9]+0.058*[#  10]+0.042*[#  12]
          +0.042*[#  16]+0.013*[#   2]+0.004*[#  11]+0.004*[#  15]
    |psi|^2 = 0.994
==== e(  11) =    -5.28510 eV ==== 
     psi = 0.443*[#  12]+0.443*[#  16]+0.014*[#   9]+0.014*[#  10]+0.014*[#   6]
          +0.014*[#  13]+0.014*[#  14]+0.014*[#  17]+0.014*[#  18]+0.005*[#   7]
          +0.005*[#   8]+0.001*[#   2]
    |psi|^2 = 0.996
==== e(  12) =    -5.21269 eV ==== 
     psi = 0.254*[#   7]+0.254*[#   8]+0.135*[#   9]+0.135*[#  10]+0.054*[#  13]
          +0.054*[#  14]+0.054*[#  17]+0.054*[#  18]
    |psi|^2 = 0.995
==== e(  13) =    -5.03667 eV ==== 
     psi = 0.472*[#   6]+0.125*[#   7]+0.125*[#   8]+0.069*[#   9]+0.069*[#  10]
          +0.038*[#  12]+0.038*[#  16]+0.019*[#   2]+0.007*[#  13]+0.007*[#  14]
          +0.007*[#  17]+0.007*[#  18]+0.005*[#  11]+0.005*[#  15]
    |psi|^2 = 0.996
==== e(  14) =    -4.61815 eV ==== 
     psi = 0.194*[#  13]+0.194*[#  14]+0.194*[#  17]+0.194*[#  18]+0.059*[#   7]
          +0.059*[#   8]+0.051*[#   9]+0.051*[#  10]
    |psi|^2 = 0.993
==== e(  15) =    -4.61042 eV ==== 
     psi = 0.196*[#   6]+0.144*[#  13]+0.144*[#  14]+0.144*[#  17]+0.144*[#  18]
          +0.043*[#   7]+0.043*[#   8]+0.036*[#   9]+0.036*[#  10]+0.033*[#  12]
          +0.033*[#  16]
    |psi|^2 = 0.994
==== e(  16) =    -3.14798 eV ==== 
     psi = 0.144*[#  13]+0.144*[#  14]+0.144*[#  17]+0.144*[#  18]+0.127*[#   9]
          +0.127*[#  10]+0.078*[#   7]+0.078*[#   8]+0.003*[#  12]+0.003*[#  16]
          +0.001*[#  11]+0.001*[#  15]
    |psi|^2 = 0.995
==== e(  17) =    -3.04341 eV ==== 
     psi = 0.152*[#  13]+0.152*[#  14]+0.152*[#  17]+0.152*[#  18]+0.117*[#   9]
          +0.117*[#  10]+0.079*[#   7]+0.079*[#   8]
    |psi|^2 = 0.997
==== e(  18) =     1.56835 eV ==== 
     psi = 0.569*[#   2]+0.076*[#  11]+0.076*[#  15]+0.067*[#  12]+0.067*[#  16]
          +0.004*[#  13]+0.004*[#  14]+0.004*[#  17]+0.004*[#  18]
    |psi|^2 = 0.873
==== e(  19) =     2.93392 eV ==== 
 
    |psi|^2 = 0.002
==== e(  20) =     3.19183 eV ==== 
     psi = 0.030*[#   2]+0.004*[#  11]+0.004*[#  15]+0.004*[#  12]+0.004*[#  16]
          
    |psi|^2 = 0.047
==== e(  21) =     3.36606 eV ==== 
 
    |psi|^2 = 0.003
==== e(  22) =     4.00278 eV ==== 
     psi = 0.035*[#   2]+0.005*[#  11]+0.005*[#  15]+0.004*[#  12]+0.004*[#  16]
          +0.001*[#   6]
    |psi|^2 = 0.057
==== e(  23) =     4.66790 eV ==== 
 
    |psi|^2 = 0.000
==== e(  24) =     5.86259 eV ==== 
     psi = 0.001*[#   2]+0.001*[#  13]+0.001*[#  14]+0.001*[#  17]+0.001*[#  18]
          
    |psi|^2 = 0.007
==== e(  25) =     6.25468 eV ==== 
     psi = 0.004*[#   2]
    |psi|^2 = 0.008
==== e(  26) =     6.35039 eV ==== 
     psi = 0.002*[#  13]+0.002*[#  14]+0.002*[#  17]+0.002*[#  18]
    |psi|^2 = 0.006
==== e(  27) =     7.22916 eV ==== 
 
    |psi|^2 = 0.000
==== e(  28) =     7.90597 eV ==== 
     psi = 0.005*[#  12]+0.005*[#  16]+0.004*[#   2]
    |psi|^2 = 0.015
==== e(  29) =     8.30978 eV ==== 
     psi = 0.001*[#   7]+0.001*[#   8]
    |psi|^2 = 0.004
==== e(  30) =     8.68452 eV ==== 
 
    |psi|^2 = 0.004
==== e(  31) =     9.13826 eV ==== 
 
    |psi|^2 = 0.001
==== e(  32) =    10.25538 eV ==== 
 
    |psi|^2 = 0.003

 k =   0.0000000000  0.0914266644  0.0000000000
==== e(   1) =   -91.60391 eV ==== 
     psi = 0.995*[#   1]+0.002*[#   2]+0.002*[#  12]+0.002*[#  16]
    |psi|^2 = 1.000
==== e(   2) =   -57.71512 eV ==== 
     psi = 0.999*[#   3]
    |psi|^2 = 1.000
==== e(   3) =   -57.62254 eV ==== 
     psi = 0.500*[#   4]+0.500*[#   5]
    |psi|^2 = 1.000
==== e(   4) =   -57.62221 eV ==== 
     psi = 0.500*[#   4]+0.500*[#   5]
    |psi|^2 = 1.000
==== e(   5) =   -18.53316 eV ==== 
     psi = 0.376*[#  11]+0.376*[#  15]+0.239*[#   2]+0.003*[#  12]+0.003*[#  16]
          +0.002*[#   1]
    |psi|^2 = 0.999
==== e(   6) =   -17.85355 eV ==== 
     psi = 0.497*[#  11]+0.497*[#  15]
    |psi|^2 = 0.997
==== e(   7) =    -8.05721 eV ==== 
     psi = 0.337*[#  12]+0.337*[#  16]+0.181*[#   6]+0.076*[#   2]+0.029*[#  11]
          +0.029*[#  15]+0.003*[#   1]
    |psi|^2 = 0.994
==== e(   8) =    -7.09742 eV ==== 
     psi = 0.192*[#   9]+0.192*[#  10]+0.097*[#  13]+0.097*[#  14]+0.097*[#  17]
          +0.097*[#  18]+0.091*[#   7]+0.091*[#   8]+0.020*[#  12]+0.020*[#  16]
          
    |psi|^2 = 0.995
==== e(   9) =    -6.99900 eV ==== 
     psi = 0.194*[#   9]+0.194*[#  10]+0.107*[#   7]+0.107*[#   8]+0.098*[#  13]
          +0.098*[#  14]+0.098*[#  17]+0.098*[#  18]
    |psi|^2 = 0.995
==== e(  10) =    -5.39052 eV ==== 
     psi = 0.149*[#   6]+0.141*[#   7]+0.141*[#   8]+0.101*[#  13]+0.101*[#  14]
          +0.101*[#  17]+0.101*[#  18]+0.056*[#   9]+0.056*[#  10]+0.017*[#   2]
          +0.009*[#  12]+0.009*[#  16]+0.005*[#  11]+0.005*[#  15]
    |psi|^2 = 0.993
==== e(  11) =    -5.27124 eV ==== 
     psi = 0.469*[#  12]+0.469*[#  16]+0.010*[#  13]+0.010*[#  14]+0.010*[#  17]
          +0.010*[#  18]+0.006*[#   9]+0.006*[#  10]+0.003*[#   6]
    |psi|^2 = 0.996
==== e(  12) =    -5.24070 eV ==== 
     psi = 0.244*[#   7]+0.244*[#   8]+0.130*[#   9]+0.130*[#  10]+0.062*[#  13]
          +0.062*[#  14]+0.062*[#  17]+0.062*[#  18]
    |psi|^2 = 0.995
==== e(  13) =    -5.04125 eV ==== 
     psi = 0.448*[#   6]+0.137*[#   7]+0.137*[#   8]+0.075*[#   9]+0.075*[#  10]
          +0.037*[#  12]+0.037*[#  16]+0.018*[#   2]+0.006*[#  13]+0.006*[#  14]
          +0.006*[#  17]+0.006*[#  18]+0.005*[#  11]+0.005*[#  15]
    |psi|^2 = 0.996
==== e(  14) =    -4.59953 eV ==== 
     psi = 0.185*[#  13]+0.185*[#  14]+0.185*[#  17]+0.185*[#  18]+0.066*[#   7]
          +0.066*[#   8]+0.060*[#   9]+0.060*[#  10]
    |psi|^2 = 0.993
==== e(  15) =    -4.59584 eV ==== 
     psi = 0.214*[#   6]+0.132*[#  13]+0.132*[#  14]+0.132*[#  17]+0.132*[#  18]
          +0.048*[#   7]+0.048*[#   8]+0.041*[#   9]+0.041*[#  10]+0.037*[#  12]
          +0.037*[#  16]
    |psi|^2 = 0.995
==== e(  16) =    -3.18418 eV ==== 
     psi = 0.142*[#  13]+0.142*[#  14]+0.142*[#  17]+0.142*[#  18]+0.128*[#   9]
          +0.128*[#  10]+0.080*[#   7]+0.080*[#   8]+0.004*[#  12]+0.004*[#  16]
          +0.002*[#  11]+0.002*[#  15]
    |psi|^2 = 0.994
==== e(  17) =    -3.05073 eV ==== 
     psi = 0.152*[#  13]+0.152*[#  14]+0.152*[#  17]+0.152*[#  18]+0.115*[#   9]
          +0.115*[#  10]+0.081*[#   7]+0.081*[#   8]
    |psi|^2 = 0.997
==== e(  18) =     1.61987 eV ==== 
     psi = 0.567*[#   2]+0.074*[#  11]+0.074*[#  15]+0.066*[#  12]+0.066*[#  16]
          +0.006*[#  13]+0.006*[#  14]+0.006*[#  17]+0.006*[#  18]
    |psi|^2 = 0.871
==== e(  19) =     2.97507 eV ==== 
 
    |psi|^2 = 0.002
==== e(  20) =     3.21551 eV ==== 
     psi = 0.031*[#   2]+0.004*[#  11]+0.004*[#  15]+0.004*[#  12]+0.004*[#  16]
          
    |psi|^2 = 0.049
==== e(  21) =     3.41264 eV ==== 
 
    |psi|^2 = 0.004
==== e(  22) =     4.01985 eV ==== 
     psi = 0.036*[#   2]+0.005*[#  11]+0.005*[#  15]+0.004*[#  12]+0.004*[#  16]
          
    |psi|^2 = 0.058
==== e(  23) =     4.68786 eV ==== 
 
    |psi|^2 = 0.000
==== e(  24) =     5.81585 eV ==== 
     psi = 0.001*[#  13]+0.001*[#  14]+0.001*[#  17]+0.001*[#  18]
    |psi|^2 = 0.007
==== e(  25) =     6.26899 eV ==== 
     psi = 0.004*[#   2]
    |psi|^2 = 0.008
==== e(  26) =     6.38201 eV ==== 
     psi = 0.002*[#  13]+0.002*[#  14]+0.002*[#  17]+0.002*[#  18]
    |psi|^2 = 0.007
==== e(  27) =     7.23379 eV ==== 
 
    |psi|^2 = 0.001
==== e(  28) =     7.88640 eV ==== 
     psi = 0.004*[#  12]+0.004*[#  16]+0.004*[#   2]
    |psi|^2 = 0.014
==== e(  29) =     8.24020 eV ==== 
     psi = 0.001*[#   7]+0.001*[#   8]
    |psi|^2 = 0.004
==== e(  30) =     8.70908 eV ==== 
 
    |psi|^2 = 0.004
==== e(  31) =     9.15221 eV ==== 
 
    |psi|^2 = 0.001
==== e(  32) =    10.15692 eV ==== 
 
    |psi|^2 = 0.003

 k =   0.0000000000  0.1028549975  0.0000000000
==== e(   1) =   -91.60390 eV ==== 
     psi = 0.995*[#   1]+0.002*[#  12]+0.002*[#  16]+0.001*[#   2]
    |psi|^2 = 1.000
==== e(   2) =   -57.71510 eV ==== 
     psi = 0.999*[#   3]
    |psi|^2 = 1.000
==== e(   3) =   -57.62264 eV ==== 
     psi = 0.500*[#   4]+0.500*[#   5]
    |psi|^2 = 1.000
==== e(   4) =   -57.62223 eV ==== 
     psi = 0.500*[#   4]+0.500*[#   5]
    |psi|^2 = 1.000
==== e(   5) =   -18.52220 eV ==== 
     psi = 0.377*[#  11]+0.377*[#  15]+0.236*[#   2]+0.003*[#  12]+0.003*[#  16]
          +0.002*[#   1]
    |psi|^2 = 0.999
==== e(   6) =   -17.84892 eV ==== 
     psi = 0.496*[#  11]+0.496*[#  15]+0.001*[#   7]+0.001*[#   8]
    |psi|^2 = 0.997
==== e(   7) =    -8.04293 eV ==== 
     psi = 0.337*[#  12]+0.337*[#  16]+0.179*[#   6]+0.077*[#   2]+0.029*[#  11]
          +0.029*[#  15]+0.003*[#   1]
    |psi|^2 = 0.994
==== e(   8) =    -7.11733 eV ==== 
     psi = 0.190*[#   9]+0.190*[#  10]+0.097*[#  13]+0.097*[#  14]+0.097*[#  17]
          +0.097*[#  18]+0.089*[#   7]+0.089*[#   8]+0.024*[#  12]+0.024*[#  16]
          
    |psi|^2 = 0.995
==== e(   9) =    -6.99523 eV ==== 
     psi = 0.192*[#   9]+0.192*[#  10]+0.109*[#   7]+0.109*[#   8]+0.099*[#  13]
          +0.099*[#  14]+0.099*[#  17]+0.099*[#  18]
    |psi|^2 = 0.995
==== e(  10) =    -5.46119 eV ==== 
     psi = 0.152*[#   6]+0.128*[#   7]+0.128*[#   8]+0.111*[#  13]+0.111*[#  14]
          +0.111*[#  17]+0.111*[#  18]+0.049*[#   9]+0.049*[#  10]+0.019*[#   2]
          +0.005*[#  11]+0.005*[#  12]+0.005*[#  15]+0.005*[#  16]
    |psi|^2 = 0.993
==== e(  11) =    -5.26965 eV ==== 
     psi = 0.233*[#   7]+0.233*[#   8]+0.125*[#   9]+0.125*[#  10]+0.069*[#  13]
          +0.069*[#  14]+0.069*[#  17]+0.069*[#  18]
    |psi|^2 = 0.994
==== e(  12) =    -5.25526 eV ==== 
     psi = 0.467*[#  12]+0.467*[#  16]+0.012*[#  13]+0.012*[#  14]+0.012*[#  17]
          +0.012*[#  18]+0.005*[#   9]+0.005*[#  10]+0.002*[#   6]
    |psi|^2 = 0.996
==== e(  13) =    -5.04547 eV ==== 
     psi = 0.431*[#   6]+0.145*[#   7]+0.145*[#   8]+0.079*[#   9]+0.079*[#  10]
          +0.035*[#  12]+0.035*[#  16]+0.018*[#   2]+0.005*[#  11]+0.005*[#  13]
          +0.005*[#  14]+0.005*[#  15]+0.005*[#  17]+0.005*[#  18]
    |psi|^2 = 0.996
==== e(  14) =    -4.58269 eV ==== 
     psi = 0.230*[#   6]+0.122*[#  13]+0.122*[#  14]+0.122*[#  17]+0.122*[#  18]
          +0.052*[#   7]+0.052*[#   8]+0.046*[#   9]+0.046*[#  10]+0.040*[#  12]
          +0.040*[#  16]
    |psi|^2 = 0.995
==== e(  15) =    -4.58126 eV ==== 
     psi = 0.178*[#  13]+0.178*[#  14]+0.178*[#  17]+0.178*[#  18]+0.072*[#   7]
          +0.072*[#   8]+0.069*[#   9]+0.069*[#  10]
    |psi|^2 = 0.993
==== e(  16) =    -3.22311 eV ==== 
     psi = 0.139*[#  13]+0.139*[#  14]+0.139*[#  17]+0.139*[#  18]+0.129*[#   9]
          +0.129*[#  10]+0.082*[#   7]+0.082*[#   8]+0.006*[#  12]+0.006*[#  16]
          +0.002*[#  11]+0.002*[#  15]
    |psi|^2 = 0.993
==== e(  17) =    -3.05862 eV ==== 
     psi = 0.151*[#  13]+0.151*[#  14]+0.151*[#  17]+0.151*[#  18]+0.113*[#   9]
          +0.113*[#  10]+0.083*[#   7]+0.083*[#   8]
    |psi|^2 = 0.997
==== e(  18) =     1.67661 eV ==== 
     psi = 0.566*[#   2]+0.073*[#  11]+0.073*[#  15]+0.065*[#  12]+0.065*[#  16]
          +0.007*[#  13]+0.007*[#  14]+0.007*[#  17]+0.007*[#  18]
    |psi|^2 = 0.868
==== e(  19) =     3.01772 eV ==== 
 
    |psi|^2 = 0.002
==== e(  20) =     3.24214 eV ==== 
     psi = 0.033*[#   2]+0.004*[#  11]+0.004*[#  15]+0.004*[#  12]+0.004*[#  16]
          
    |psi|^2 = 0.051
==== e(  21) =     3.46667 eV ==== 
 
    |psi|^2 = 0.004
==== e(  22) =     4.03854 eV ==== 
     psi = 0.036*[#   2]+0.005*[#  11]+0.005*[#  15]+0.004*[#  12]+0.004*[#  16]
          
    |psi|^2 = 0.059
==== e(  23) =     4.71030 eV ==== 
 
    |psi|^2 = 0.000
==== e(  24) =     5.76543 eV ==== 
     psi = 0.001*[#  13]+0.001*[#  14]+0.001*[#  17]+0.001*[#  18]
    |psi|^2 = 0.007
==== e(  25) =     6.28678 eV ==== 
     psi = 0.005*[#   2]
    |psi|^2 = 0.009
==== e(  26) =     6.41683 eV ==== 
     psi = 0.002*[#  13]+0.002*[#  14]+0.002*[#  17]+0.002*[#  18]
    |psi|^2 = 0.007
==== e(  27) =     7.23774 eV ==== 
 
    |psi|^2 = 0.001
==== e(  28) =     7.86381 eV ==== 
     psi = 0.004*[#  12]+0.004*[#  16]+0.003*[#   2]
    |psi|^2 = 0.014
==== e(  29) =     8.17040 eV ==== 
     psi = 0.001*[#   7]+0.001*[#   8]
    |psi|^2 = 0.003
==== e(  30) =     8.73642 eV ==== 
 
    |psi|^2 = 0.004
==== e(  31) =     9.16763 eV ==== 
 
    |psi|^2 = 0.001
==== e(  32) =    10.05486 eV ==== 
 
    |psi|^2 = 0.003

 k =   0.0000000000  0.1142833305  0.0000000000
==== e(   1) =   -91.60389 eV ==== 
     psi = 0.995*[#   1]+0.002*[#  12]+0.002*[#  16]+0.001*[#   2]
    |psi|^2 = 1.000
==== e(   2) =   -57.71507 eV ==== 
     psi = 0.999*[#   3]
    |psi|^2 = 1.000
==== e(   3) =   -57.62275 eV ==== 
     psi = 0.500*[#   4]+0.500*[#   5]
    |psi|^2 = 1.000
==== e(   4) =   -57.62225 eV ==== 
     psi = 0.500*[#   4]+0.500*[#   5]
    |psi|^2 = 1.000
==== e(   5) =   -18.51005 eV ==== 
     psi = 0.378*[#  11]+0.378*[#  15]+0.233*[#   2]+0.003*[#  12]+0.003*[#  16]
          +0.002*[#   1]
    |psi|^2 = 0.999
==== e(   6) =   -17.84382 eV ==== 
     psi = 0.496*[#  11]+0.496*[#  15]+0.001*[#   7]+0.001*[#   8]
    |psi|^2 = 0.998
==== e(   7) =    -8.02716 eV ==== 
     psi = 0.337*[#  12]+0.337*[#  16]+0.178*[#   6]+0.078*[#   2]+0.029*[#  11]
          +0.029*[#  15]+0.003*[#   1]
    |psi|^2 = 0.994
==== e(   8) =    -7.13862 eV ==== 
     psi = 0.188*[#   9]+0.188*[#  10]+0.098*[#  13]+0.098*[#  14]+0.098*[#  17]
          +0.098*[#  18]+0.086*[#   7]+0.086*[#   8]+0.028*[#  12]+0.028*[#  16]
          
    |psi|^2 = 0.994
==== e(   9) =    -6.99110 eV ==== 
     psi = 0.189*[#   9]+0.189*[#  10]+0.111*[#   7]+0.111*[#   8]+0.099*[#  13]
          +0.099*[#  14]+0.099*[#  17]+0.099*[#  18]
    |psi|^2 = 0.995
==== e(  10) =    -5.53616 eV ==== 
     psi = 0.152*[#   6]+0.119*[#  13]+0.119*[#  14]+0.119*[#  17]+0.119*[#  18]
          +0.119*[#   7]+0.119*[#   8]+0.043*[#   9]+0.043*[#  10]+0.022*[#   2]
          +0.006*[#  11]+0.006*[#  15]+0.003*[#  12]+0.003*[#  16]
    |psi|^2 = 0.992
==== e(  11) =    -5.29921 eV ==== 
     psi = 0.224*[#   7]+0.224*[#   8]+0.121*[#   9]+0.121*[#  10]+0.076*[#  13]
          +0.076*[#  14]+0.076*[#  17]+0.076*[#  18]
    |psi|^2 = 0.994
==== e(  12) =    -5.23888 eV ==== 
     psi = 0.462*[#  12]+0.462*[#  16]+0.015*[#  13]+0.015*[#  14]+0.015*[#  17]
          +0.015*[#  18]+0.004*[#   9]+0.004*[#  10]+0.002*[#   6]
    |psi|^2 = 0.996
==== e(  13) =    -5.04961 eV ==== 
     psi = 0.420*[#   6]+0.151*[#   7]+0.151*[#   8]+0.081*[#   9]+0.081*[#  10]
          +0.035*[#  12]+0.035*[#  16]+0.017*[#   2]+0.005*[#  11]+0.005*[#  15]
          +0.004*[#  13]+0.004*[#  14]+0.004*[#  17]+0.004*[#  18]
    |psi|^2 = 0.996
==== e(  14) =    -4.57101 eV ==== 
     psi = 0.244*[#   6]+0.113*[#  13]+0.113*[#  14]+0.113*[#  17]+0.113*[#  18]
          +0.055*[#   7]+0.055*[#   8]+0.051*[#   9]+0.051*[#  10]+0.043*[#  12]
          +0.043*[#  16]
    |psi|^2 = 0.995
==== e(  15) =    -4.56373 eV ==== 
     psi = 0.171*[#  13]+0.171*[#  14]+0.171*[#  17]+0.171*[#  18]+0.078*[#   9]
          +0.078*[#  10]+0.077*[#   7]+0.077*[#   8]
    |psi|^2 = 0.993
==== e(  16) =    -3.26410 eV ==== 
     psi = 0.135*[#  13]+0.135*[#  14]+0.135*[#  17]+0.135*[#  18]+0.131*[#   9]
          +0.131*[#  10]+0.085*[#   7]+0.085*[#   8]+0.008*[#  12]+0.008*[#  16]
          +0.003*[#  11]+0.003*[#  15]
    |psi|^2 = 0.993
==== e(  17) =    -3.06696 eV ==== 
     psi = 0.151*[#  13]+0.151*[#  14]+0.151*[#  17]+0.151*[#  18]+0.110*[#   9]
          +0.110*[#  10]+0.086*[#   7]+0.086*[#   8]
    |psi|^2 = 0.997
==== e(  18) =     1.73803 eV ==== 
     psi = 0.564*[#   2]+0.071*[#  11]+0.071*[#  15]+0.063*[#  12]+0.063*[#  16]
          +0.008*[#  13]+0.008*[#  14]+0.008*[#  17]+0.008*[#  18]
    |psi|^2 = 0.865
==== e(  19) =     3.06109 eV ==== 
 
    |psi|^2 = 0.002
==== e(  20) =     3.27160 eV ==== 
     psi = 0.034*[#   2]+0.004*[#  11]+0.004*[#  15]+0.004*[#  12]+0.004*[#  16]
          
    |psi|^2 = 0.054
==== e(  21) =     3.52782 eV ==== 
 
    |psi|^2 = 0.005
==== e(  22) =     4.05866 eV ==== 
     psi = 0.036*[#   2]+0.005*[#  11]+0.005*[#  15]+0.004*[#  12]+0.004*[#  16]
          
    |psi|^2 = 0.060
==== e(  23) =     4.73515 eV ==== 
 
    |psi|^2 = 0.000
==== e(  24) =     5.71315 eV ==== 
     psi = 0.002*[#  13]+0.002*[#  14]+0.002*[#  17]+0.002*[#  18]
    |psi|^2 = 0.007
==== e(  25) =     6.30761 eV ==== 
     psi = 0.005*[#   2]
    |psi|^2 = 0.009
==== e(  26) =     6.45448 eV ==== 
     psi = 0.002*[#  13]+0.002*[#  14]+0.002*[#  17]+0.002*[#  18]
    |psi|^2 = 0.007
==== e(  27) =     7.24028 eV ==== 
 
    |psi|^2 = 0.001
==== e(  28) =     7.83792 eV ==== 
     psi = 0.004*[#  12]+0.004*[#  16]+0.003*[#   2]
    |psi|^2 = 0.013
==== e(  29) =     8.10298 eV ==== 
 
    |psi|^2 = 0.003
==== e(  30) =     8.76638 eV ==== 
 
    |psi|^2 = 0.004
==== e(  31) =     9.18422 eV ==== 
 
    |psi|^2 = 0.001
==== e(  32) =     9.95251 eV ==== 
 
    |psi|^2 = 0.004

 k =   0.0000000000  0.1257116636  0.0000000000
==== e(   1) =   -91.60389 eV ==== 
     psi = 0.995*[#   1]+0.002*[#  12]+0.002*[#  16]+0.001*[#   2]
    |psi|^2 = 1.000
==== e(   2) =   -57.71508 eV ==== 
     psi = 0.999*[#   3]
    |psi|^2 = 1.000
==== e(   3) =   -57.62288 eV ==== 
     psi = 0.500*[#   4]+0.500*[#   5]
    |psi|^2 = 1.000
==== e(   4) =   -57.62229 eV ==== 
     psi = 0.500*[#   4]+0.500*[#   5]
    |psi|^2 = 1.000
==== e(   5) =   -18.49673 eV ==== 
     psi = 0.380*[#  11]+0.380*[#  15]+0.230*[#   2]+0.003*[#  12]+0.003*[#  16]
          +0.002*[#   1]
    |psi|^2 = 0.999
==== e(   6) =   -17.83826 eV ==== 
     psi = 0.495*[#  11]+0.495*[#  15]+0.002*[#   7]+0.002*[#   8]
    |psi|^2 = 0.998
==== e(   7) =    -8.01000 eV ==== 
     psi = 0.337*[#  12]+0.337*[#  16]+0.176*[#   6]+0.079*[#   2]+0.029*[#  11]
          +0.029*[#  15]+0.003*[#   1]+0.001*[#  13]+0.001*[#  14]+0.001*[#  17]
          +0.001*[#  18]
    |psi|^2 = 0.994
==== e(   8) =    -7.16108 eV ==== 
     psi = 0.185*[#   9]+0.185*[#  10]+0.098*[#  13]+0.098*[#  14]+0.098*[#  17]
          +0.098*[#  18]+0.083*[#   7]+0.083*[#   8]+0.032*[#  12]+0.032*[#  16]
          
    |psi|^2 = 0.994
==== e(   9) =    -6.98665 eV ==== 
     psi = 0.187*[#   9]+0.187*[#  10]+0.112*[#   7]+0.112*[#   8]+0.099*[#  13]
          +0.099*[#  14]+0.099*[#  17]+0.099*[#  18]
    |psi|^2 = 0.995
==== e(  10) =    -5.61468 eV ==== 
     psi = 0.150*[#   6]+0.126*[#  13]+0.126*[#  14]+0.126*[#  17]+0.126*[#  18]
          +0.111*[#   7]+0.111*[#   8]+0.037*[#   9]+0.037*[#  10]+0.024*[#   2]
          +0.006*[#  11]+0.006*[#  15]+0.002*[#  12]+0.002*[#  16]
    |psi|^2 = 0.992
==== e(  11) =    -5.32911 eV ==== 
     psi = 0.215*[#   7]+0.215*[#   8]+0.117*[#   9]+0.117*[#  10]+0.082*[#  13]
          +0.082*[#  14]+0.082*[#  17]+0.082*[#  18]
    |psi|^2 = 0.994
==== e(  12) =    -5.22276 eV ==== 
     psi = 0.456*[#  12]+0.456*[#  16]+0.018*[#  13]+0.018*[#  14]+0.018*[#  17]
          +0.018*[#  18]+0.004*[#   9]+0.004*[#  10]+0.002*[#   6]
    |psi|^2 = 0.996
==== e(  13) =    -5.05380 eV ==== 
     psi = 0.412*[#   6]+0.156*[#   7]+0.156*[#   8]+0.083*[#   9]+0.083*[#  10]
          +0.034*[#  12]+0.034*[#  16]+0.017*[#   2]+0.004*[#  11]+0.004*[#  15]
          +0.003*[#  13]+0.003*[#  14]+0.003*[#  17]+0.003*[#  18]
    |psi|^2 = 0.996
==== e(  14) =    -4.56082 eV ==== 
     psi = 0.256*[#   6]+0.105*[#  13]+0.105*[#  14]+0.105*[#  17]+0.105*[#  18]
          +0.058*[#   7]+0.058*[#   8]+0.057*[#   9]+0.057*[#  10]+0.046*[#  12]
          +0.046*[#  16]
    |psi|^2 = 0.995
==== e(  15) =    -4.54723 eV ==== 
     psi = 0.164*[#  13]+0.164*[#  14]+0.164*[#  17]+0.164*[#  18]+0.087*[#   9]
          +0.087*[#  10]+0.081*[#   7]+0.081*[#   8]
    |psi|^2 = 0.994
==== e(  16) =    -3.30641 eV ==== 
     psi = 0.132*[#   9]+0.132*[#  10]+0.131*[#  13]+0.131*[#  14]+0.131*[#  17]
          +0.131*[#  18]+0.087*[#   7]+0.087*[#   8]+0.010*[#  12]+0.010*[#  16]
          +0.003*[#  11]+0.003*[#  15]
    |psi|^2 = 0.992
==== e(  17) =    -3.07563 eV ==== 
     psi = 0.151*[#  13]+0.151*[#  14]+0.151*[#  17]+0.151*[#  18]+0.108*[#   9]
          +0.108*[#  10]+0.089*[#   7]+0.089*[#   8]
    |psi|^2 = 0.997
==== e(  18) =     1.80356 eV ==== 
     psi = 0.562*[#   2]+0.069*[#  11]+0.069*[#  15]+0.062*[#  12]+0.062*[#  16]
          +0.009*[#  13]+0.009*[#  14]+0.009*[#  17]+0.009*[#  18]
    |psi|^2 = 0.862
==== e(  19) =     3.10465 eV ==== 
 
    |psi|^2 = 0.002
==== e(  20) =     3.30379 eV ==== 
     psi = 0.036*[#   2]+0.005*[#  11]+0.005*[#  15]+0.004*[#  12]+0.004*[#  16]
          
    |psi|^2 = 0.056
==== e(  21) =     3.59534 eV ==== 
     psi = 0.001*[#  13]+0.001*[#  14]+0.001*[#  17]+0.001*[#  18]
    |psi|^2 = 0.006
==== e(  22) =     4.08004 eV ==== 
     psi = 0.036*[#   2]+0.005*[#  11]+0.005*[#  15]+0.004*[#  12]+0.004*[#  16]
          +0.001*[#  13]+0.001*[#  14]+0.001*[#  17]+0.001*[#  18]
    |psi|^2 = 0.060
==== e(  23) =     4.76232 eV ==== 
 
    |psi|^2 = 0.001
==== e(  24) =     5.66091 eV ==== 
     psi = 0.002*[#  13]+0.002*[#  14]+0.002*[#  17]+0.002*[#  18]
    |psi|^2 = 0.007
==== e(  25) =     6.33100 eV ==== 
     psi = 0.005*[#   2]
    |psi|^2 = 0.009
==== e(  26) =     6.49449 eV ==== 
     psi = 0.002*[#  13]+0.002*[#  14]+0.002*[#  17]+0.002*[#  18]
    |psi|^2 = 0.008
==== e(  27) =     7.24038 eV ==== 
 
    |psi|^2 = 0.001
==== e(  28) =     7.80846 eV ==== 
     psi = 0.004*[#  12]+0.004*[#  16]+0.002*[#   2]
    |psi|^2 = 0.012
==== e(  29) =     8.04067 eV ==== 
 
    |psi|^2 = 0.003
==== e(  30) =     8.79878 eV ==== 
 
    |psi|^2 = 0.004
==== e(  31) =     9.20142 eV ==== 
 
    |psi|^2 = 0.001
==== e(  32) =     9.85255 eV ==== 
 
    |psi|^2 = 0.004

 k =   0.0000000000  0.1371399966  0.0000000000
==== e(   1) =   -91.60388 eV ==== 
     psi = 0.995*[#   1]+0.002*[#  12]+0.002*[#  16]+0.001*[#   2]
    |psi|^2 = 1.000
==== e(   2) =   -57.71504 eV ==== 
     psi = 0.999*[#   3]
    |psi|^2 = 1.000
==== e(   3) =   -57.62301 eV ==== 
     psi = 0.500*[#   4]+0.500*[#   5]
    |psi|^2 = 1.000
==== e(   4) =   -57.62232 eV ==== 
     psi = 0.500*[#   4]+0.500*[#   5]
    |psi|^2 = 1.000
==== e(   5) =   -18.48227 eV ==== 
     psi = 0.382*[#  11]+0.382*[#  15]+0.227*[#   2]+0.003*[#  12]+0.003*[#  16]
          +0.002*[#   1]
    |psi|^2 = 0.999
==== e(   6) =   -17.83226 eV ==== 
     psi = 0.495*[#  11]+0.495*[#  15]+0.002*[#   7]+0.002*[#   8]
    |psi|^2 = 0.998
==== e(   7) =    -7.99151 eV ==== 
     psi = 0.337*[#  12]+0.337*[#  16]+0.173*[#   6]+0.080*[#   2]+0.029*[#  11]
          +0.029*[#  15]+0.003*[#   1]+0.001*[#  13]+0.001*[#  14]+0.001*[#  17]
          +0.001*[#  18]
    |psi|^2 = 0.994
==== e(   8) =    -7.18444 eV ==== 
     psi = 0.183*[#   9]+0.183*[#  10]+0.099*[#  13]+0.099*[#  14]+0.099*[#  17]
          +0.099*[#  18]+0.080*[#   7]+0.080*[#   8]+0.036*[#  12]+0.036*[#  16]
          
    |psi|^2 = 0.994
==== e(   9) =    -6.98191 eV ==== 
     psi = 0.184*[#   9]+0.184*[#  10]+0.115*[#   7]+0.115*[#   8]+0.100*[#  13]
          +0.100*[#  14]+0.100*[#  17]+0.100*[#  18]
    |psi|^2 = 0.995
==== e(  10) =    -5.69611 eV ==== 
     psi = 0.148*[#   6]+0.132*[#  13]+0.132*[#  14]+0.132*[#  17]+0.132*[#  18]
          +0.104*[#   7]+0.104*[#   8]+0.032*[#   9]+0.032*[#  10]+0.026*[#   2]
          +0.007*[#  11]+0.007*[#  15]+0.001*[#  12]+0.001*[#  16]
    |psi|^2 = 0.992
==== e(  11) =    -5.35908 eV ==== 
     psi = 0.207*[#   7]+0.207*[#   8]+0.114*[#   9]+0.114*[#  10]+0.088*[#  13]
          +0.088*[#  14]+0.088*[#  17]+0.088*[#  18]
    |psi|^2 = 0.994
==== e(  12) =    -5.20747 eV ==== 
     psi = 0.449*[#  12]+0.449*[#  16]+0.022*[#  13]+0.022*[#  14]+0.022*[#  17]
          +0.022*[#  18]+0.003*[#   9]+0.003*[#  10]+0.002*[#   6]
    |psi|^2 = 0.995
==== e(  13) =    -5.05803 eV ==== 
     psi = 0.406*[#   6]+0.159*[#   7]+0.159*[#   8]+0.083*[#   9]+0.083*[#  10]
          +0.034*[#  12]+0.034*[#  16]+0.017*[#   2]+0.004*[#  11]+0.004*[#  15]
          +0.003*[#  13]+0.003*[#  14]+0.003*[#  17]+0.003*[#  18]
    |psi|^2 = 0.996
==== e(  14) =    -4.55210 eV ==== 
     psi = 0.266*[#   6]+0.097*[#  13]+0.097*[#  14]+0.097*[#  17]+0.097*[#  18]
          +0.062*[#   9]+0.062*[#  10]+0.060*[#   7]+0.060*[#   8]+0.048*[#  12]
          +0.048*[#  16]
    |psi|^2 = 0.995
==== e(  15) =    -4.53202 eV ==== 
     psi = 0.158*[#  13]+0.158*[#  14]+0.158*[#  17]+0.158*[#  18]+0.096*[#   9]
          +0.096*[#  10]+0.084*[#   7]+0.084*[#   8]
    |psi|^2 = 0.994
==== e(  16) =    -3.34921 eV ==== 
     psi = 0.133*[#   9]+0.133*[#  10]+0.127*[#  13]+0.127*[#  14]+0.127*[#  17]
          +0.127*[#  18]+0.091*[#   7]+0.091*[#   8]+0.014*[#  12]+0.014*[#  16]
          +0.003*[#  11]+0.003*[#  15]
    |psi|^2 = 0.992
==== e(  17) =    -3.08444 eV ==== 
     psi = 0.151*[#  13]+0.151*[#  14]+0.151*[#  17]+0.151*[#  18]+0.105*[#   9]
          +0.105*[#  10]+0.092*[#   7]+0.092*[#   8]
    |psi|^2 = 0.997
==== e(  18) =     1.87262 eV ==== 
     psi = 0.561*[#   2]+0.067*[#  11]+0.067*[#  15]+0.061*[#  12]+0.061*[#  16]
          +0.011*[#  13]+0.011*[#  14]+0.011*[#  17]+0.011*[#  18]
    |psi|^2 = 0.860
==== e(  19) =     3.14811 eV ==== 
 
    |psi|^2 = 0.002
==== e(  20) =     3.33852 eV ==== 
     psi = 0.037*[#   2]+0.005*[#  11]+0.005*[#  15]+0.004*[#  12]+0.004*[#  16]
          
    |psi|^2 = 0.059
==== e(  21) =     3.66791 eV ==== 
     psi = 0.001*[#  13]+0.001*[#  14]+0.001*[#  17]+0.001*[#  18]
    |psi|^2 = 0.006
==== e(  22) =     4.10266 eV ==== 
     psi = 0.036*[#   2]+0.005*[#  11]+0.005*[#  15]+0.004*[#  12]+0.004*[#  16]
          +0.001*[#  13]+0.001*[#  14]+0.001*[#  17]+0.001*[#  18]
    |psi|^2 = 0.061
==== e(  23) =     4.79168 eV ==== 
 
    |psi|^2 = 0.001
==== e(  24) =     5.61072 eV ==== 
     psi = 0.002*[#  13]+0.002*[#  14]+0.002*[#  17]+0.002*[#  18]
    |psi|^2 = 0.008
==== e(  25) =     6.35650 eV ==== 
     psi = 0.005*[#   2]
    |psi|^2 = 0.010
==== e(  26) =     6.53636 eV ==== 
     psi = 0.002*[#  13]+0.002*[#  14]+0.002*[#  17]+0.002*[#  18]
    |psi|^2 = 0.008
==== e(  27) =     7.23673 eV ==== 
 
    |psi|^2 = 0.002
==== e(  28) =     7.77563 eV ==== 
     psi = 0.003*[#  12]+0.003*[#  16]+0.002*[#   2]
    |psi|^2 = 0.011
==== e(  29) =     7.98599 eV ==== 
 
    |psi|^2 = 0.003
==== e(  30) =     8.83346 eV ==== 
 
    |psi|^2 = 0.004
==== e(  31) =     9.21817 eV ==== 
 
    |psi|^2 = 0.001
==== e(  32) =     9.75773 eV ==== 
 
    |psi|^2 = 0.004

 k =   0.0000000000  0.1485683297  0.0000000000
==== e(   1) =   -91.60387 eV ==== 
     psi = 0.995*[#   1]+0.002*[#  12]+0.002*[#  16]+0.001*[#   2]
    |psi|^2 = 1.000
==== e(   2) =   -57.71501 eV ==== 
     psi = 0.999*[#   3]
    |psi|^2 = 1.000
==== e(   3) =   -57.62315 eV ==== 
     psi = 0.500*[#   4]+0.500*[#   5]
    |psi|^2 = 1.000
==== e(   4) =   -57.62235 eV ==== 
     psi = 0.500*[#   4]+0.500*[#   5]
    |psi|^2 = 1.000
==== e(   5) =   -18.46672 eV ==== 
     psi = 0.383*[#  11]+0.383*[#  15]+0.223*[#   2]+0.003*[#  12]+0.003*[#  16]
          +0.002*[#   1]
    |psi|^2 = 0.999
==== e(   6) =   -17.82585 eV ==== 
     psi = 0.494*[#  11]+0.494*[#  15]+0.002*[#   7]+0.002*[#   8]
    |psi|^2 = 0.998
==== e(   7) =    -7.97182 eV ==== 
     psi = 0.337*[#  12]+0.337*[#  16]+0.171*[#   6]+0.081*[#   2]+0.029*[#  11]
          +0.029*[#  15]+0.003*[#   1]+0.002*[#  13]+0.002*[#  14]+0.002*[#  17]
          +0.002*[#  18]
    |psi|^2 = 0.994
==== e(   8) =    -7.20852 eV ==== 
     psi = 0.180*[#   9]+0.180*[#  10]+0.100*[#  13]+0.100*[#  14]+0.100*[#  17]
          +0.100*[#  18]+0.077*[#   7]+0.077*[#   8]+0.040*[#  12]+0.040*[#  16]
          
    |psi|^2 = 0.994
==== e(   9) =    -6.97692 eV ==== 
     psi = 0.180*[#   9]+0.180*[#  10]+0.117*[#   7]+0.117*[#   8]+0.100*[#  13]
          +0.100*[#  14]+0.100*[#  17]+0.100*[#  18]
    |psi|^2 = 0.995
==== e(  10) =    -5.77993 eV ==== 
     psi = 0.146*[#   6]+0.136*[#  13]+0.136*[#  14]+0.136*[#  17]+0.136*[#  18]
          +0.099*[#   7]+0.099*[#   8]+0.028*[#   9]+0.028*[#  10]+0.028*[#   2]
          +0.007*[#  11]+0.007*[#  15]
    |psi|^2 = 0.991
==== e(  11) =    -5.38894 eV ==== 
     psi = 0.199*[#   7]+0.199*[#   8]+0.112*[#   9]+0.112*[#  10]+0.093*[#  13]
          +0.093*[#  14]+0.093*[#  17]+0.093*[#  18]
    |psi|^2 = 0.994
==== e(  12) =    -5.19360 eV ==== 
     psi = 0.441*[#  12]+0.441*[#  16]+0.026*[#  13]+0.026*[#  14]+0.026*[#  17]
          +0.026*[#  18]+0.002*[#   9]+0.002*[#  10]+0.002*[#   6]+0.001*[#   7]
          +0.001*[#   8]
    |psi|^2 = 0.995
==== e(  13) =    -5.06242 eV ==== 
     psi = 0.402*[#   6]+0.161*[#   7]+0.161*[#   8]+0.084*[#   9]+0.084*[#  10]
          +0.034*[#  12]+0.034*[#  16]+0.017*[#   2]+0.004*[#  11]+0.004*[#  15]
          +0.002*[#  13]+0.002*[#  14]+0.002*[#  17]+0.002*[#  18]
    |psi|^2 = 0.996
==== e(  14) =    -4.54484 eV ==== 
     psi = 0.274*[#   6]+0.091*[#  13]+0.091*[#  14]+0.091*[#  17]+0.091*[#  18]
          +0.068*[#   9]+0.068*[#  10]+0.062*[#   7]+0.062*[#   8]+0.049*[#  12]
          +0.049*[#  16]
    |psi|^2 = 0.995
==== e(  15) =    -4.51832 eV ==== 
     psi = 0.153*[#  13]+0.153*[#  14]+0.153*[#  17]+0.153*[#  18]+0.105*[#   9]
          +0.105*[#  10]+0.087*[#   7]+0.087*[#   8]
    |psi|^2 = 0.994
==== e(  16) =    -3.39170 eV ==== 
     psi = 0.135*[#   9]+0.135*[#  10]+0.122*[#  13]+0.122*[#  14]+0.122*[#  17]
          +0.122*[#  18]+0.094*[#   7]+0.094*[#   8]+0.018*[#  12]+0.018*[#  16]
          +0.004*[#  11]+0.004*[#  15]+0.001*[#   6]
    |psi|^2 = 0.992
==== e(  17) =    -3.09327 eV ==== 
     psi = 0.150*[#  13]+0.150*[#  14]+0.150*[#  17]+0.150*[#  18]+0.102*[#   9]
          +0.102*[#  10]+0.096*[#   7]+0.096*[#   8]
    |psi|^2 = 0.997
==== e(  18) =     1.94459 eV ==== 
     psi = 0.559*[#   2]+0.065*[#  11]+0.065*[#  15]+0.059*[#  12]+0.059*[#  16]
          +0.012*[#  13]+0.012*[#  14]+0.012*[#  17]+0.012*[#  18]
    |psi|^2 = 0.857
==== e(  19) =     3.19127 eV ==== 
 
    |psi|^2 = 0.003
==== e(  20) =     3.37561 eV ==== 
     psi = 0.039*[#   2]+0.005*[#  11]+0.005*[#  15]+0.004*[#  12]+0.004*[#  16]
          +0.001*[#  13]+0.001*[#  14]+0.001*[#  17]+0.001*[#  18]
    |psi|^2 = 0.062
==== e(  21) =     3.74360 eV ==== 
     psi = 0.001*[#  13]+0.001*[#  14]+0.001*[#  17]+0.001*[#  18]
    |psi|^2 = 0.007
==== e(  22) =     4.12685 eV ==== 
     psi = 0.036*[#   2]+0.004*[#  11]+0.004*[#  15]+0.004*[#  12]+0.004*[#  16]
          +0.002*[#  13]+0.002*[#  14]+0.002*[#  17]+0.002*[#  18]
    |psi|^2 = 0.060
==== e(  23) =     4.82310 eV ==== 
 
    |psi|^2 = 0.001
==== e(  24) =     5.56466 eV ==== 
     psi = 0.002*[#  13]+0.002*[#  14]+0.002*[#  17]+0.002*[#  18]
    |psi|^2 = 0.008
==== e(  25) =     6.38366 eV ==== 
     psi = 0.005*[#   2]
    |psi|^2 = 0.010
==== e(  26) =     6.57951 eV ==== 
     psi = 0.002*[#  13]+0.002*[#  14]+0.002*[#  17]+0.002*[#  18]
    |psi|^2 = 0.009
==== e(  27) =     7.22774 eV ==== 
 
    |psi|^2 = 0.003
==== e(  28) =     7.74075 eV ==== 
     psi = 0.003*[#  12]+0.003*[#  16]+0.002*[#   2]
    |psi|^2 = 0.010
==== e(  29) =     7.94054 eV ==== 
 
    |psi|^2 = 0.003
==== e(  30) =     8.87025 eV ==== 
 
    |psi|^2 = 0.003
==== e(  31) =     9.23234 eV ==== 
 
    |psi|^2 = 0.001
==== e(  32) =     9.67157 eV ==== 
 
    |psi|^2 = 0.004

 k =   0.0000000000  0.1599966628  0.0000000000
==== e(   1) =   -91.60386 eV ==== 
     psi = 0.995*[#   1]+0.002*[#  12]+0.002*[#  16]
    |psi|^2 = 1.000
==== e(   2) =   -57.71499 eV ==== 
     psi = 0.999*[#   3]
    |psi|^2 = 1.000
==== e(   3) =   -57.62331 eV ==== 
     psi = 0.500*[#   4]+0.500*[#   5]
    |psi|^2 = 1.000
==== e(   4) =   -57.62240 eV ==== 
     psi = 0.500*[#   4]+0.500*[#   5]
    |psi|^2 = 1.000
==== e(   5) =   -18.45011 eV ==== 
     psi = 0.385*[#  11]+0.385*[#  15]+0.219*[#   2]+0.003*[#  12]+0.003*[#  16]
          +0.001*[#   1]
    |psi|^2 = 0.999
==== e(   6) =   -17.81905 eV ==== 
     psi = 0.494*[#  11]+0.494*[#  15]+0.002*[#   7]+0.002*[#   8]
    |psi|^2 = 0.998
==== e(   7) =    -7.95105 eV ==== 
     psi = 0.336*[#  12]+0.336*[#  16]+0.168*[#   6]+0.083*[#   2]+0.029*[#  11]
          +0.029*[#  15]+0.003*[#   1]+0.002*[#  13]+0.002*[#  14]+0.002*[#  17]
          +0.002*[#  18]
    |psi|^2 = 0.994
==== e(   8) =    -7.23312 eV ==== 
     psi = 0.178*[#   9]+0.178*[#  10]+0.100*[#  13]+0.100*[#  14]+0.100*[#  17]
          +0.100*[#  18]+0.074*[#   7]+0.074*[#   8]+0.044*[#  12]+0.044*[#  16]
          
    |psi|^2 = 0.993
==== e(   9) =    -6.97172 eV ==== 
     psi = 0.177*[#   9]+0.177*[#  10]+0.119*[#   7]+0.119*[#   8]+0.101*[#  13]
          +0.101*[#  14]+0.101*[#  17]+0.101*[#  18]
    |psi|^2 = 0.995
==== e(  10) =    -5.86561 eV ==== 
     psi = 0.144*[#   6]+0.140*[#  13]+0.140*[#  14]+0.140*[#  17]+0.140*[#  18]
          +0.095*[#   7]+0.095*[#   8]+0.030*[#   2]+0.025*[#   9]+0.025*[#  10]
          +0.008*[#  11]+0.008*[#  15]
    |psi|^2 = 0.991
==== e(  11) =    -5.41850 eV ==== 
     psi = 0.191*[#   7]+0.191*[#   8]+0.109*[#   9]+0.109*[#  10]+0.098*[#  13]
          +0.098*[#  14]+0.098*[#  17]+0.098*[#  18]
    |psi|^2 = 0.993
==== e(  12) =    -5.18177 eV ==== 
     psi = 0.433*[#  12]+0.433*[#  16]+0.030*[#  13]+0.030*[#  14]+0.030*[#  17]
          +0.030*[#  18]+0.002*[#   6]+0.002*[#   9]+0.002*[#  10]
    |psi|^2 = 0.995
==== e(  13) =    -5.06701 eV ==== 
     psi = 0.400*[#   6]+0.163*[#   7]+0.163*[#   8]+0.083*[#   9]+0.083*[#  10]
          +0.035*[#  12]+0.035*[#  16]+0.017*[#   2]+0.004*[#  11]+0.004*[#  15]
          +0.002*[#  13]+0.002*[#  14]+0.002*[#  17]+0.002*[#  18]
    |psi|^2 = 0.996
==== e(  14) =    -4.53903 eV ==== 
     psi = 0.281*[#   6]+0.085*[#  13]+0.085*[#  14]+0.085*[#  17]+0.085*[#  18]
          +0.073*[#   9]+0.073*[#  10]+0.063*[#   7]+0.063*[#   8]+0.051*[#  12]
          +0.051*[#  16]
    |psi|^2 = 0.995
==== e(  15) =    -4.50632 eV ==== 
     psi = 0.147*[#  13]+0.147*[#  14]+0.147*[#  17]+0.147*[#  18]+0.114*[#   9]
          +0.114*[#  10]+0.088*[#   7]+0.088*[#   8]
    |psi|^2 = 0.994
==== e(  16) =    -3.43304 eV ==== 
     psi = 0.136*[#   9]+0.136*[#  10]+0.117*[#  13]+0.117*[#  14]+0.117*[#  17]
          +0.117*[#  18]+0.098*[#   7]+0.098*[#   8]+0.023*[#  12]+0.023*[#  16]
          +0.004*[#  11]+0.004*[#  15]+0.002*[#   6]
    |psi|^2 = 0.992
==== e(  17) =    -3.10197 eV ==== 
     psi = 0.150*[#  13]+0.150*[#  14]+0.150*[#  17]+0.150*[#  18]+0.100*[#   7]
          +0.100*[#   8]+0.098*[#   9]+0.098*[#  10]
    |psi|^2 = 0.997
==== e(  18) =     2.01887 eV ==== 
     psi = 0.559*[#   2]+0.063*[#  11]+0.063*[#  15]+0.058*[#  12]+0.058*[#  16]
          +0.013*[#  13]+0.013*[#  14]+0.013*[#  17]+0.013*[#  18]
    |psi|^2 = 0.855
==== e(  19) =     3.23398 eV ==== 
 
    |psi|^2 = 0.003
==== e(  20) =     3.41482 eV ==== 
     psi = 0.041*[#   2]+0.005*[#  11]+0.005*[#  15]+0.004*[#  12]+0.004*[#  16]
          +0.001*[#  13]+0.001*[#  14]+0.001*[#  17]+0.001*[#  18]
    |psi|^2 = 0.065
==== e(  21) =     3.81967 eV ==== 
     psi = 0.001*[#  13]+0.001*[#  14]+0.001*[#  17]+0.001*[#  18]
    |psi|^2 = 0.007
==== e(  22) =     4.15358 eV ==== 
     psi = 0.034*[#   2]+0.004*[#  11]+0.004*[#  15]+0.004*[#  12]+0.004*[#  16]
          +0.002*[#  13]+0.002*[#  14]+0.002*[#  17]+0.002*[#  18]
    |psi|^2 = 0.059
==== e(  23) =     4.85643 eV ==== 
 
    |psi|^2 = 0.001
==== e(  24) =     5.52488 eV ==== 
     psi = 0.002*[#  13]+0.002*[#  14]+0.002*[#  17]+0.002*[#  18]
    |psi|^2 = 0.009
==== e(  25) =     6.41204 eV ==== 
     psi = 0.005*[#   2]
    |psi|^2 = 0.009
==== e(  26) =     6.62334 eV ==== 
     psi = 0.002*[#  13]+0.002*[#  14]+0.002*[#  17]+0.002*[#  18]
    |psi|^2 = 0.010
==== e(  27) =     7.21168 eV ==== 
     psi = 0.001*[#   2]
    |psi|^2 = 0.004
==== e(  28) =     7.70671 eV ==== 
     psi = 0.003*[#  12]+0.003*[#  16]+0.001*[#   2]
    |psi|^2 = 0.008
==== e(  29) =     7.90444 eV ==== 
 
    |psi|^2 = 0.003
==== e(  30) =     8.90907 eV ==== 
 
    |psi|^2 = 0.003
==== e(  31) =     9.23989 eV ==== 
 
    |psi|^2 = 0.001
==== e(  32) =     9.59932 eV ==== 
 
    |psi|^2 = 0.003

 k =   0.0000000000  0.1714249958  0.0000000000
==== e(   1) =   -91.60385 eV ==== 
     psi = 0.995*[#   1]+0.001*[#  12]+0.001*[#  16]
    |psi|^2 = 1.000
==== e(   2) =   -57.71496 eV ==== 
     psi = 0.999*[#   3]
    |psi|^2 = 1.000
==== e(   3) =   -57.62346 eV ==== 
     psi = 0.500*[#   4]+0.500*[#   5]
    |psi|^2 = 1.000
==== e(   4) =   -57.62244 eV ==== 
     psi = 0.500*[#   4]+0.500*[#   5]
    |psi|^2 = 1.000
==== e(   5) =   -18.43249 eV ==== 
     psi = 0.387*[#  11]+0.387*[#  15]+0.215*[#   2]+0.003*[#  12]+0.003*[#  16]
          +0.001*[#   1]
    |psi|^2 = 0.999
==== e(   6) =   -17.81191 eV ==== 
     psi = 0.493*[#  11]+0.493*[#  15]+0.003*[#   7]+0.003*[#   8]+0.001*[#   9]
          +0.001*[#  10]
    |psi|^2 = 0.998
==== e(   7) =    -7.92935 eV ==== 
     psi = 0.336*[#  12]+0.336*[#  16]+0.165*[#   6]+0.084*[#   2]+0.029*[#  11]
          +0.029*[#  15]+0.003*[#   1]+0.003*[#  13]+0.003*[#  14]+0.003*[#  17]
          +0.003*[#  18]
    |psi|^2 = 0.994
==== e(   8) =    -7.25804 eV ==== 
     psi = 0.175*[#   9]+0.175*[#  10]+0.101*[#  13]+0.101*[#  14]+0.101*[#  17]
          +0.101*[#  18]+0.071*[#   7]+0.071*[#   8]+0.047*[#  12]+0.047*[#  16]
          
    |psi|^2 = 0.993
==== e(   9) =    -6.96633 eV ==== 
     psi = 0.173*[#   9]+0.173*[#  10]+0.122*[#   7]+0.122*[#   8]+0.101*[#  13]
          +0.101*[#  14]+0.101*[#  17]+0.101*[#  18]
    |psi|^2 = 0.995
==== e(  10) =    -5.95263 eV ==== 
     psi = 0.144*[#  13]+0.144*[#  14]+0.144*[#  17]+0.144*[#  18]+0.142*[#   6]
          +0.092*[#   7]+0.092*[#   8]+0.031*[#   2]+0.021*[#   9]+0.021*[#  10]
          +0.008*[#  11]+0.008*[#  15]
    |psi|^2 = 0.991
==== e(  11) =    -5.44759 eV ==== 
     psi = 0.184*[#   7]+0.184*[#   8]+0.107*[#   9]+0.107*[#  10]+0.103*[#  13]
          +0.103*[#  14]+0.103*[#  17]+0.103*[#  18]
    |psi|^2 = 0.993
==== e(  12) =    -5.17257 eV ==== 
     psi = 0.424*[#  12]+0.424*[#  16]+0.035*[#  13]+0.035*[#  14]+0.035*[#  17]
          +0.035*[#  18]+0.002*[#   6]
    |psi|^2 = 0.994
==== e(  13) =    -5.07175 eV ==== 
     psi = 0.398*[#   6]+0.165*[#   7]+0.165*[#   8]+0.083*[#   9]+0.083*[#  10]
          +0.035*[#  12]+0.035*[#  16]+0.016*[#   2]+0.004*[#  11]+0.004*[#  15]
          +0.002*[#  13]+0.002*[#  14]+0.002*[#  17]+0.002*[#  18]
    |psi|^2 = 0.996
==== e(  14) =    -4.53462 eV ==== 
     psi = 0.287*[#   6]+0.080*[#   9]+0.080*[#  10]+0.079*[#  13]+0.079*[#  14]
          +0.079*[#  17]+0.079*[#  18]+0.064*[#   7]+0.064*[#   8]+0.052*[#  12]
          +0.052*[#  16]
    |psi|^2 = 0.995
==== e(  15) =    -4.49616 eV ==== 
     psi = 0.142*[#  13]+0.142*[#  14]+0.142*[#  17]+0.142*[#  18]+0.123*[#   9]
          +0.123*[#  10]+0.089*[#   7]+0.089*[#   8]
    |psi|^2 = 0.994
==== e(  16) =    -3.47234 eV ==== 
     psi = 0.136*[#   9]+0.136*[#  10]+0.111*[#  13]+0.111*[#  14]+0.111*[#  17]
          +0.111*[#  18]+0.102*[#   7]+0.102*[#   8]+0.029*[#  12]+0.029*[#  16]
          +0.005*[#  11]+0.005*[#  15]+0.002*[#   6]
    |psi|^2 = 0.992
==== e(  17) =    -3.11038 eV ==== 
     psi = 0.150*[#  13]+0.150*[#  14]+0.150*[#  17]+0.150*[#  18]+0.104*[#   7]
          +0.104*[#   8]+0.095*[#   9]+0.095*[#  10]
    |psi|^2 = 0.997
==== e(  18) =     2.09481 eV ==== 
     psi = 0.558*[#   2]+0.061*[#  11]+0.061*[#  15]+0.057*[#  12]+0.057*[#  16]
          +0.015*[#  13]+0.015*[#  14]+0.015*[#  17]+0.015*[#  18]
    |psi|^2 = 0.853
==== e(  19) =     3.27594 eV ==== 
     psi = 0.002*[#   2]
    |psi|^2 = 0.004
==== e(  20) =     3.45587 eV ==== 
     psi = 0.042*[#   2]+0.005*[#  11]+0.005*[#  15]+0.005*[#  12]+0.005*[#  16]
          +0.002*[#  13]+0.002*[#  14]+0.002*[#  17]+0.002*[#  18]
    |psi|^2 = 0.068
==== e(  21) =     3.89227 eV ==== 
     psi = 0.001*[#  13]+0.001*[#  14]+0.001*[#  17]+0.001*[#  18]
    |psi|^2 = 0.008
==== e(  22) =     4.18492 eV ==== 
     psi = 0.032*[#   2]+0.004*[#  11]+0.004*[#  12]+0.004*[#  15]+0.004*[#  16]
          +0.002*[#  13]+0.002*[#  14]+0.002*[#  17]+0.002*[#  18]
    |psi|^2 = 0.056
==== e(  23) =     4.89152 eV ==== 
 
    |psi|^2 = 0.002
==== e(  24) =     5.49351 eV ==== 
     psi = 0.002*[#  13]+0.002*[#  14]+0.002*[#  17]+0.002*[#  18]+0.001*[#   2]
          
    |psi|^2 = 0.010
==== e(  25) =     6.44120 eV ==== 
     psi = 0.005*[#   2]
    |psi|^2 = 0.009
==== e(  26) =     6.66714 eV ==== 
     psi = 0.002*[#  13]+0.002*[#  14]+0.002*[#  17]+0.002*[#  18]
    |psi|^2 = 0.010
==== e(  27) =     7.18712 eV ==== 
     psi = 0.002*[#   2]
    |psi|^2 = 0.005
==== e(  28) =     7.67713 eV ==== 
     psi = 0.002*[#  12]+0.002*[#  16]
    |psi|^2 = 0.007
==== e(  29) =     7.87675 eV ==== 
 
    |psi|^2 = 0.003
==== e(  30) =     8.94989 eV ==== 
 
    |psi|^2 = 0.003
==== e(  31) =     9.23434 eV ==== 
 
    |psi|^2 = 0.001
==== e(  32) =     9.54858 eV ==== 
 
    |psi|^2 = 0.003

 k =   0.0000000000  0.1828533289  0.0000000000
==== e(   1) =   -91.60384 eV ==== 
     psi = 0.995*[#   1]+0.001*[#  12]+0.001*[#  16]
    |psi|^2 = 1.000
==== e(   2) =   -57.71495 eV ==== 
     psi = 0.999*[#   3]
    |psi|^2 = 1.000
==== e(   3) =   -57.62362 eV ==== 
     psi = 0.500*[#   4]+0.500*[#   5]
    |psi|^2 = 1.000
==== e(   4) =   -57.62247 eV ==== 
     psi = 0.500*[#   4]+0.500*[#   5]
    |psi|^2 = 1.000
==== e(   5) =   -18.41390 eV ==== 
     psi = 0.389*[#  11]+0.389*[#  15]+0.210*[#   2]+0.003*[#  12]+0.003*[#  16]
          +0.001*[#   1]
    |psi|^2 = 0.999
==== e(   6) =   -17.80444 eV ==== 
     psi = 0.493*[#  11]+0.493*[#  15]+0.003*[#   7]+0.003*[#   8]+0.001*[#   9]
          +0.001*[#  10]
    |psi|^2 = 0.998
==== e(   7) =    -7.90691 eV ==== 
     psi = 0.335*[#  12]+0.335*[#  16]+0.161*[#   6]+0.086*[#   2]+0.029*[#  11]
          +0.029*[#  15]+0.003*[#  13]+0.003*[#  14]+0.003*[#  17]+0.003*[#  18]
          +0.003*[#   1]+0.001*[#   9]+0.001*[#  10]
    |psi|^2 = 0.994
==== e(   8) =    -7.28312 eV ==== 
     psi = 0.172*[#   9]+0.172*[#  10]+0.103*[#  13]+0.103*[#  14]+0.103*[#  17]
          +0.103*[#  18]+0.068*[#   7]+0.068*[#   8]+0.051*[#  12]+0.051*[#  16]
          
    |psi|^2 = 0.993
==== e(   9) =    -6.96082 eV ==== 
     psi = 0.169*[#   9]+0.169*[#  10]+0.125*[#   7]+0.125*[#   8]+0.102*[#  13]
          +0.102*[#  14]+0.102*[#  17]+0.102*[#  18]
    |psi|^2 = 0.995
==== e(  10) =    -6.04047 eV ==== 
     psi = 0.146*[#  13]+0.146*[#  14]+0.146*[#  17]+0.146*[#  18]+0.141*[#   6]
          +0.089*[#   7]+0.089*[#   8]+0.032*[#   2]+0.018*[#   9]+0.018*[#  10]
          +0.008*[#  11]+0.008*[#  15]+0.001*[#  12]+0.001*[#  16]
    |psi|^2 = 0.990
==== e(  11) =    -5.47608 eV ==== 
     psi = 0.176*[#   7]+0.176*[#   8]+0.107*[#  13]+0.107*[#  14]+0.107*[#  17]
          +0.107*[#  18]+0.105*[#   9]+0.105*[#  10]
    |psi|^2 = 0.993
==== e(  12) =    -5.16662 eV ==== 
     psi = 0.414*[#  12]+0.414*[#  16]+0.040*[#  13]+0.040*[#  14]+0.040*[#  17]
          +0.040*[#  18]+0.003*[#   6]
    |psi|^2 = 0.994
==== e(  13) =    -5.07671 eV ==== 
     psi = 0.398*[#   6]+0.166*[#   7]+0.166*[#   8]+0.082*[#   9]+0.082*[#  10]
          +0.035*[#  12]+0.035*[#  16]+0.016*[#   2]+0.004*[#  11]+0.004*[#  15]
          +0.002*[#  13]+0.002*[#  14]+0.002*[#  17]+0.002*[#  18]
    |psi|^2 = 0.996
==== e(  14) =    -4.53164 eV ==== 
     psi = 0.291*[#   6]+0.086*[#   9]+0.086*[#  10]+0.074*[#  13]+0.074*[#  14]
          +0.074*[#  17]+0.074*[#  18]+0.064*[#   7]+0.064*[#   8]+0.052*[#  12]
          +0.052*[#  16]
    |psi|^2 = 0.995
==== e(  15) =    -4.48797 eV ==== 
     psi = 0.137*[#  13]+0.137*[#  14]+0.137*[#  17]+0.137*[#  18]+0.133*[#   9]
          +0.133*[#  10]+0.089*[#   7]+0.089*[#   8]
    |psi|^2 = 0.994
==== e(  16) =    -3.50880 eV ==== 
     psi = 0.136*[#   9]+0.136*[#  10]+0.107*[#   7]+0.107*[#   8]+0.105*[#  13]
          +0.105*[#  14]+0.105*[#  17]+0.105*[#  18]+0.036*[#  12]+0.036*[#  16]
          +0.005*[#  11]+0.005*[#  15]+0.003*[#   6]
    |psi|^2 = 0.992
==== e(  17) =    -3.11836 eV ==== 
     psi = 0.150*[#  13]+0.150*[#  14]+0.150*[#  17]+0.150*[#  18]+0.108*[#   7]
          +0.108*[#   8]+0.091*[#   9]+0.091*[#  10]
    |psi|^2 = 0.997
==== e(  18) =     2.17176 eV ==== 
     psi = 0.559*[#   2]+0.059*[#  11]+0.059*[#  15]+0.056*[#  12]+0.056*[#  16]
          +0.016*[#  13]+0.016*[#  14]+0.016*[#  17]+0.016*[#  18]
    |psi|^2 = 0.852
==== e(  19) =     3.31664 eV ==== 
     psi = 0.002*[#   2]
    |psi|^2 = 0.006
==== e(  20) =     3.49847 eV ==== 
     psi = 0.043*[#   2]+0.005*[#  11]+0.005*[#  12]+0.005*[#  15]+0.005*[#  16]
          +0.002*[#  13]+0.002*[#  14]+0.002*[#  17]+0.002*[#  18]
    |psi|^2 = 0.069
==== e(  21) =     3.95656 eV ==== 
     psi = 0.001*[#  13]+0.001*[#  14]+0.001*[#  17]+0.001*[#  18]+0.001*[#   2]
          
    |psi|^2 = 0.008
==== e(  22) =     4.22422 eV ==== 
     psi = 0.029*[#   2]+0.003*[#  11]+0.003*[#  12]+0.003*[#  15]+0.003*[#  16]
          +0.002*[#  13]+0.002*[#  14]+0.002*[#  17]+0.002*[#  18]
[...]
     psi = 0.012*[#   6]+0.008*[#   2]+0.004*[#  12]+0.004*[#  16]+0.001*[#  11]
          +0.001*[#  15]
    |psi|^2 = 0.030
==== e(  29) =     8.86086 eV ==== 
     psi = 0.005*[#   7]+0.005*[#   8]+0.003*[#   9]+0.003*[#  10]
    |psi|^2 = 0.017
==== e(  30) =     9.04468 eV ==== 
     psi = 0.005*[#   7]+0.005*[#   8]+0.004*[#   9]+0.004*[#  10]
    |psi|^2 = 0.017
==== e(  31) =     9.21053 eV ==== 
     psi = 0.001*[#   6]+0.001*[#   2]
    |psi|^2 = 0.004
==== e(  32) =    10.58253 eV ==== 
 
    |psi|^2 = 0.002

 k =  -0.0197944535  0.0342849992  0.0000000000
==== e(   1) =   -87.58336 eV ==== 
     psi = 0.994*[#   1]+0.002*[#   2]+0.002*[#  12]+0.002*[#  16]
    |psi|^2 = 1.000
==== e(   2) =   -53.72363 eV ==== 
     psi = 0.999*[#   3]
    |psi|^2 = 1.000
==== e(   3) =   -53.71994 eV ==== 
     psi = 0.500*[#   4]+0.500*[#   5]
    |psi|^2 = 1.000
==== e(   4) =   -53.71984 eV ==== 
     psi = 0.500*[#   4]+0.500*[#   5]
    |psi|^2 = 1.000
==== e(   5) =   -18.35327 eV ==== 
     psi = 0.374*[#  11]+0.374*[#  15]+0.244*[#   2]+0.003*[#  12]+0.003*[#  16]
          +0.002*[#   1]
    |psi|^2 = 1.000
==== e(   6) =   -17.66336 eV ==== 
     psi = 0.498*[#  11]+0.498*[#  15]
    |psi|^2 = 0.997
==== e(   7) =    -7.61287 eV ==== 
     psi = 0.394*[#  12]+0.394*[#  16]+0.079*[#   2]+0.062*[#   6]+0.030*[#  11]
          +0.030*[#  15]+0.004*[#   1]
    |psi|^2 = 0.994
==== e(   8) =    -5.72210 eV ==== 
     psi = 0.177*[#  13]+0.177*[#  14]+0.177*[#  17]+0.177*[#  18]+0.080*[#   9]
          +0.080*[#  10]+0.037*[#   7]+0.037*[#   8]+0.026*[#  12]+0.026*[#  16]
          
    |psi|^2 = 0.992
==== e(   9) =    -5.67378 eV ==== 
     psi = 0.187*[#  13]+0.187*[#  14]+0.187*[#  17]+0.187*[#  18]+0.083*[#   9]
          +0.083*[#  10]+0.040*[#   7]+0.040*[#   8]
    |psi|^2 = 0.992
==== e(  10) =    -5.13619 eV ==== 
     psi = 0.472*[#  12]+0.472*[#  16]+0.011*[#  13]+0.011*[#  14]+0.011*[#  17]
          +0.011*[#  18]+0.002*[#   9]+0.002*[#  10]+0.001*[#   7]+0.001*[#   8]
          
    |psi|^2 = 0.997
==== e(  11) =    -4.56646 eV ==== 
     psi = 0.245*[#  13]+0.245*[#  14]+0.245*[#  17]+0.245*[#  18]+0.003*[#   2]
          +0.002*[#   6]+0.002*[#   7]+0.002*[#   8]
    |psi|^2 = 0.993
==== e(  12) =    -4.52613 eV ==== 
     psi = 0.247*[#  13]+0.247*[#  14]+0.247*[#  17]+0.247*[#  18]+0.002*[#   7]
          +0.002*[#   8]
    |psi|^2 = 0.993
==== e(  13) =    -2.23548 eV ==== 
     psi = 0.302*[#   7]+0.302*[#   8]+0.186*[#   9]+0.186*[#  10]+0.001*[#  13]
          +0.001*[#  14]+0.001*[#  17]+0.001*[#  18]
    |psi|^2 = 0.982
==== e(  14) =    -2.22844 eV ==== 
     psi = 0.300*[#   7]+0.300*[#   8]+0.188*[#   9]+0.188*[#  10]+0.001*[#  13]
          +0.001*[#  14]+0.001*[#  17]+0.001*[#  18]
    |psi|^2 = 0.982
==== e(  15) =    -1.59196 eV ==== 
     psi = 0.909*[#   6]+0.024*[#  12]+0.024*[#  16]+0.015*[#   2]+0.003*[#  11]
          +0.003*[#  15]
    |psi|^2 = 0.980
==== e(  16) =    -0.44463 eV ==== 
     psi = 0.222*[#   9]+0.222*[#  10]+0.148*[#   7]+0.148*[#   8]+0.061*[#  13]
          +0.061*[#  14]+0.061*[#  17]+0.061*[#  18]
    |psi|^2 = 0.986
==== e(  17) =    -0.42891 eV ==== 
     psi = 0.220*[#   9]+0.220*[#  10]+0.149*[#   7]+0.149*[#   8]+0.063*[#  13]
          +0.063*[#  14]+0.063*[#  17]+0.063*[#  18]
    |psi|^2 = 0.988
==== e(  18) =     1.84436 eV ==== 
     psi = 0.529*[#   2]+0.073*[#  11]+0.073*[#  15]+0.058*[#  12]+0.058*[#  16]
          
    |psi|^2 = 0.795
==== e(  19) =     2.97088 eV ==== 
 
    |psi|^2 = 0.002
==== e(  20) =     3.20533 eV ==== 
     psi = 0.041*[#   2]+0.006*[#  11]+0.006*[#  15]+0.005*[#  12]+0.005*[#  16]
          +0.001*[#   6]
    |psi|^2 = 0.063
==== e(  21) =     3.42869 eV ==== 
 
    |psi|^2 = 0.002
==== e(  22) =     4.11261 eV ==== 
     psi = 0.065*[#   2]+0.009*[#  11]+0.009*[#  15]+0.008*[#  12]+0.008*[#  16]
          +0.004*[#   6]
    |psi|^2 = 0.103
==== e(  23) =     4.65756 eV ==== 
 
    |psi|^2 = 0.000
==== e(  24) =     6.11077 eV ==== 
     psi = 0.011*[#   2]+0.003*[#   6]+0.002*[#  11]+0.002*[#  15]+0.001*[#  12]
          +0.001*[#  16]
    |psi|^2 = 0.021
==== e(  25) =     6.66074 eV ==== 
     psi = 0.001*[#  13]+0.001*[#  14]+0.001*[#  17]+0.001*[#  18]
    |psi|^2 = 0.004
==== e(  26) =     6.73095 eV ==== 
     psi = 0.001*[#  13]+0.001*[#  14]+0.001*[#  17]+0.001*[#  18]
    |psi|^2 = 0.005
==== e(  27) =     7.25903 eV ==== 
 
    |psi|^2 = 0.000
==== e(  28) =     8.45775 eV ==== 
     psi = 0.012*[#   6]+0.008*[#   2]+0.004*[#  12]+0.004*[#  16]+0.001*[#  11]
          +0.001*[#  15]
    |psi|^2 = 0.031
==== e(  29) =     8.92378 eV ==== 
     psi = 0.005*[#   7]+0.005*[#   8]+0.003*[#   9]+0.003*[#  10]
    |psi|^2 = 0.017
==== e(  30) =     9.03079 eV ==== 
     psi = 0.005*[#   7]+0.005*[#   8]+0.004*[#   9]+0.004*[#  10]
    |psi|^2 = 0.017
==== e(  31) =     9.20385 eV ==== 
     psi = 0.001*[#   2]+0.001*[#   6]
    |psi|^2 = 0.004
==== e(  32) =    10.58014 eV ==== 
 
    |psi|^2 = 0.001

 k =  -0.0131963023  0.0228566661  0.0000000000
==== e(   1) =   -87.58335 eV ==== 
     psi = 0.994*[#   1]+0.002*[#   2]+0.002*[#  12]+0.002*[#  16]
    |psi|^2 = 1.000
==== e(   2) =   -53.72362 eV ==== 
     psi = 0.999*[#   3]
    |psi|^2 = 1.000
==== e(   3) =   -53.71985 eV ==== 
     psi = 0.500*[#   4]+0.500*[#   5]
    |psi|^2 = 1.000
==== e(   4) =   -53.71980 eV ==== 
     psi = 0.500*[#   4]+0.500*[#   5]
    |psi|^2 = 1.000
==== e(   5) =   -18.35764 eV ==== 
     psi = 0.373*[#  11]+0.373*[#  15]+0.245*[#   2]+0.003*[#  12]+0.003*[#  16]
          +0.002*[#   1]
    |psi|^2 = 1.000
==== e(   6) =   -17.66538 eV ==== 
     psi = 0.498*[#  11]+0.498*[#  15]
    |psi|^2 = 0.997
==== e(   7) =    -7.61800 eV ==== 
     psi = 0.394*[#  12]+0.394*[#  16]+0.078*[#   2]+0.063*[#   6]+0.030*[#  11]
          +0.030*[#  15]+0.004*[#   1]
    |psi|^2 = 0.994
==== e(   8) =    -5.69557 eV ==== 
     psi = 0.181*[#  13]+0.181*[#  14]+0.181*[#  17]+0.181*[#  18]+0.082*[#   9]
          +0.082*[#  10]+0.038*[#   7]+0.038*[#   8]+0.013*[#  12]+0.013*[#  16]
          
    |psi|^2 = 0.992
==== e(   9) =    -5.67327 eV ==== 
     psi = 0.187*[#  13]+0.187*[#  14]+0.187*[#  17]+0.187*[#  18]+0.083*[#   9]
          +0.083*[#  10]+0.040*[#   7]+0.040*[#   8]
    |psi|^2 = 0.992
==== e(  10) =    -5.15190 eV ==== 
     psi = 0.485*[#  12]+0.485*[#  16]+0.006*[#  13]+0.006*[#  14]+0.006*[#  17]
          +0.006*[#  18]+0.001*[#   9]+0.001*[#  10]
    |psi|^2 = 0.997
==== e(  11) =    -4.53473 eV ==== 
     psi = 0.247*[#  13]+0.247*[#  14]+0.247*[#  17]+0.247*[#  18]+0.001*[#   2]
          
    |psi|^2 = 0.993
==== e(  12) =    -4.51654 eV ==== 
     psi = 0.248*[#  13]+0.248*[#  14]+0.248*[#  17]+0.248*[#  18]
    |psi|^2 = 0.993
==== e(  13) =    -2.23880 eV ==== 
     psi = 0.303*[#   7]+0.303*[#   8]+0.186*[#   9]+0.186*[#  10]
    |psi|^2 = 0.982
==== e(  14) =    -2.23554 eV ==== 
     psi = 0.302*[#   7]+0.302*[#   8]+0.187*[#   9]+0.187*[#  10]
    |psi|^2 = 0.982
==== e(  15) =    -1.59630 eV ==== 
     psi = 0.910*[#   6]+0.023*[#  12]+0.023*[#  16]+0.016*[#   2]+0.003*[#  11]
          +0.003*[#  15]
    |psi|^2 = 0.980
==== e(  16) =    -0.43394 eV ==== 
     psi = 0.222*[#   9]+0.222*[#  10]+0.147*[#   7]+0.147*[#   8]+0.062*[#  13]
          +0.062*[#  14]+0.062*[#  17]+0.062*[#  18]
    |psi|^2 = 0.987
==== e(  17) =    -0.42677 eV ==== 
     psi = 0.221*[#   9]+0.221*[#  10]+0.148*[#   7]+0.148*[#   8]+0.063*[#  13]
          +0.063*[#  14]+0.063*[#  17]+0.063*[#  18]
    |psi|^2 = 0.988
==== e(  18) =     1.82029 eV ==== 
     psi = 0.530*[#   2]+0.074*[#  11]+0.074*[#  15]+0.058*[#  12]+0.058*[#  16]
          +0.001*[#   6]
    |psi|^2 = 0.797
==== e(  19) =     2.95069 eV ==== 
 
    |psi|^2 = 0.001
==== e(  20) =     3.19387 eV ==== 
     psi = 0.040*[#   2]+0.006*[#  11]+0.006*[#  15]+0.005*[#  12]+0.005*[#  16]
          +0.001*[#   6]
    |psi|^2 = 0.062
==== e(  21) =     3.40398 eV ==== 
 
    |psi|^2 = 0.002
==== e(  22) =     4.10284 eV ==== 
     psi = 0.064*[#   2]+0.009*[#  11]+0.009*[#  15]+0.007*[#  12]+0.007*[#  16]
          +0.004*[#   6]
    |psi|^2 = 0.102
==== e(  23) =     4.64796 eV ==== 
 
    |psi|^2 = 0.000
==== e(  24) =     6.10906 eV ==== 
     psi = 0.011*[#   2]+0.003*[#   6]+0.002*[#  11]+0.002*[#  15]+0.001*[#  12]
          +0.001*[#  16]
    |psi|^2 = 0.021
==== e(  25) =     6.68256 eV ==== 
     psi = 0.001*[#  13]+0.001*[#  14]+0.001*[#  17]+0.001*[#  18]
    |psi|^2 = 0.004
==== e(  26) =     6.71446 eV ==== 
     psi = 0.001*[#  13]+0.001*[#  14]+0.001*[#  17]+0.001*[#  18]
    |psi|^2 = 0.004
==== e(  27) =     7.25368 eV ==== 
 
    |psi|^2 = 0.000
==== e(  28) =     8.46807 eV ==== 
     psi = 0.012*[#   6]+0.009*[#   2]+0.004*[#  12]+0.004*[#  16]+0.001*[#  11]
          +0.001*[#  15]
    |psi|^2 = 0.031
==== e(  29) =     8.97190 eV ==== 
     psi = 0.005*[#   7]+0.005*[#   8]+0.004*[#   9]+0.004*[#  10]
    |psi|^2 = 0.017
==== e(  30) =     9.02072 eV ==== 
     psi = 0.005*[#   7]+0.005*[#   8]+0.004*[#   9]+0.004*[#  10]
    |psi|^2 = 0.017
==== e(  31) =     9.19926 eV ==== 
     psi = 0.001*[#   2]+0.001*[#   6]
    |psi|^2 = 0.004
==== e(  32) =    10.57159 eV ==== 
 
    |psi|^2 = 0.000

 k =  -0.0065981512  0.0114283331  0.0000000000
==== e(   1) =   -87.58334 eV ==== 
     psi = 0.994*[#   1]+0.002*[#   2]+0.002*[#  12]+0.002*[#  16]
    |psi|^2 = 1.000
==== e(   2) =   -53.72362 eV ==== 
     psi = 0.999*[#   3]
    |psi|^2 = 1.000
==== e(   3) =   -53.71978 eV ==== 
     psi = 0.500*[#   4]+0.500*[#   5]
    |psi|^2 = 1.000
==== e(   4) =   -53.71977 eV ==== 
     psi = 0.500*[#   4]+0.500*[#   5]
    |psi|^2 = 1.000
==== e(   5) =   -18.36028 eV ==== 
     psi = 0.373*[#  11]+0.373*[#  15]+0.245*[#   2]+0.003*[#  12]+0.003*[#  16]
          +0.002*[#   1]
    |psi|^2 = 1.000
==== e(   6) =   -17.66660 eV ==== 
     psi = 0.498*[#  11]+0.498*[#  15]
    |psi|^2 = 0.997
==== e(   7) =    -7.62108 eV ==== 
     psi = 0.394*[#  12]+0.394*[#  16]+0.078*[#   2]+0.063*[#   6]+0.030*[#  11]
          +0.030*[#  15]+0.004*[#   1]
    |psi|^2 = 0.994
==== e(   8) =    -5.67868 eV ==== 
     psi = 0.185*[#  13]+0.185*[#  14]+0.185*[#  17]+0.185*[#  18]+0.083*[#   9]
          +0.083*[#  10]+0.039*[#   7]+0.039*[#   8]+0.004*[#  12]+0.004*[#  16]
          
    |psi|^2 = 0.992
==== e(   9) =    -5.67297 eV ==== 
     psi = 0.186*[#  13]+0.186*[#  14]+0.186*[#  17]+0.186*[#  18]+0.083*[#   9]
          +0.083*[#  10]+0.040*[#   7]+0.040*[#   8]
    |psi|^2 = 0.992
==== e(  10) =    -5.16230 eV ==== 
     psi = 0.495*[#  12]+0.495*[#  16]+0.002*[#  13]+0.002*[#  14]+0.002*[#  17]
          +0.002*[#  18]
    |psi|^2 = 0.997
==== e(  11) =    -4.51536 eV ==== 
     psi = 0.248*[#  13]+0.248*[#  14]+0.248*[#  17]+0.248*[#  18]
    |psi|^2 = 0.993
==== e(  12) =    -4.51077 eV ==== 
     psi = 0.248*[#  13]+0.248*[#  14]+0.248*[#  17]+0.248*[#  18]
    |psi|^2 = 0.993
==== e(  13) =    -2.24080 eV ==== 
     psi = 0.304*[#   7]+0.304*[#   8]+0.186*[#   9]+0.186*[#  10]
    |psi|^2 = 0.982
==== e(  14) =    -2.23997 eV ==== 
     psi = 0.304*[#   7]+0.304*[#   8]+0.186*[#   9]+0.186*[#  10]
    |psi|^2 = 0.982
==== e(  15) =    -1.59895 eV ==== 
     psi = 0.910*[#   6]+0.023*[#  12]+0.023*[#  16]+0.016*[#   2]+0.003*[#  11]
          +0.003*[#  15]
    |psi|^2 = 0.980
==== e(  16) =    -0.42730 eV ==== 
     psi = 0.222*[#   9]+0.222*[#  10]+0.147*[#   7]+0.147*[#   8]+0.063*[#  13]
          +0.063*[#  14]+0.063*[#  17]+0.063*[#  18]
    |psi|^2 = 0.988
==== e(  17) =    -0.42548 eV ==== 
     psi = 0.221*[#   9]+0.221*[#  10]+0.147*[#   7]+0.147*[#   8]+0.063*[#  13]
          +0.063*[#  14]+0.063*[#  17]+0.063*[#  18]
    |psi|^2 = 0.988
==== e(  18) =     1.80574 eV ==== 
     psi = 0.531*[#   2]+0.074*[#  11]+0.074*[#  15]+0.059*[#  12]+0.059*[#  16]
          +0.001*[#   6]
    |psi|^2 = 0.799
==== e(  19) =     2.93810 eV ==== 
 
    |psi|^2 = 0.001
==== e(  20) =     3.18700 eV ==== 
     psi = 0.040*[#   2]+0.006*[#  11]+0.006*[#  15]+0.005*[#  12]+0.005*[#  16]
          +0.001*[#   6]
    |psi|^2 = 0.062
==== e(  21) =     3.38933 eV ==== 
 
    |psi|^2 = 0.001
==== e(  22) =     4.09694 eV ==== 
     psi = 0.063*[#   2]+0.009*[#  11]+0.009*[#  15]+0.007*[#  12]+0.007*[#  16]
          +0.004*[#   6]
    |psi|^2 = 0.101
==== e(  23) =     4.64219 eV ==== 
 
    |psi|^2 = 0.000
==== e(  24) =     6.10770 eV ==== 
     psi = 0.011*[#   2]+0.003*[#   6]+0.002*[#  11]+0.002*[#  15]+0.001*[#  12]
          +0.001*[#  16]
    |psi|^2 = 0.021
==== e(  25) =     6.69635 eV ==== 
     psi = 0.001*[#  13]+0.001*[#  14]+0.001*[#  17]+0.001*[#  18]
    |psi|^2 = 0.004
==== e(  26) =     6.70442 eV ==== 
     psi = 0.001*[#  13]+0.001*[#  14]+0.001*[#  17]+0.001*[#  18]
    |psi|^2 = 0.004
==== e(  27) =     7.25050 eV ==== 
 
    |psi|^2 = 0.000
==== e(  28) =     8.47422 eV ==== 
     psi = 0.012*[#   6]+0.009*[#   2]+0.004*[#  12]+0.004*[#  16]+0.001*[#  11]
          +0.001*[#  15]
    |psi|^2 = 0.032
==== e(  29) =     9.00222 eV ==== 
     psi = 0.005*[#   7]+0.005*[#   8]+0.004*[#   9]+0.004*[#  10]
    |psi|^2 = 0.018
==== e(  30) =     9.01463 eV ==== 
     psi = 0.005*[#   7]+0.005*[#   8]+0.004*[#   9]+0.004*[#  10]
    |psi|^2 = 0.018
==== e(  31) =     9.19658 eV ==== 
     psi = 0.002*[#   2]+0.001*[#   6]
    |psi|^2 = 0.005
==== e(  32) =    10.56380 eV ==== 
 
    |psi|^2 = 0.000

 k =   0.0000000000  0.0000000000  0.0000000000
==== e(   1) =   -87.58334 eV ==== 
     psi = 0.994*[#   1]+0.002*[#   2]+0.002*[#  12]+0.002*[#  16]
    |psi|^2 = 1.000
==== e(   2) =   -53.72361 eV ==== 
     psi = 0.999*[#   3]
    |psi|^2 = 1.000
==== e(   3) =   -53.71976 eV ==== 
     psi = 0.500*[#   4]+0.500*[#   5]
    |psi|^2 = 1.000
==== e(   4) =   -53.71976 eV ==== 
     psi = 0.500*[#   4]+0.500*[#   5]
    |psi|^2 = 1.000
==== e(   5) =   -18.36115 eV ==== 
     psi = 0.373*[#  11]+0.373*[#  15]+0.245*[#   2]+0.003*[#  12]+0.003*[#  16]
          +0.002*[#   1]
    |psi|^2 = 1.000
==== e(   6) =   -17.66700 eV ==== 
     psi = 0.498*[#  11]+0.498*[#  15]
    |psi|^2 = 0.997
==== e(   7) =    -7.62211 eV ==== 
     psi = 0.394*[#  12]+0.394*[#  16]+0.078*[#   2]+0.063*[#   6]+0.030*[#  11]
          +0.030*[#  15]+0.004*[#   1]
    |psi|^2 = 0.994
==== e(   8) =    -5.67287 eV ==== 
     psi = 0.186*[#  13]+0.186*[#  14]+0.186*[#  17]+0.186*[#  18]+0.084*[#   9]
          +0.084*[#  10]+0.039*[#   7]+0.039*[#   8]
    |psi|^2 = 0.992
==== e(   9) =    -5.67287 eV ==== 
     psi = 0.186*[#  13]+0.186*[#  14]+0.186*[#  17]+0.186*[#  18]+0.084*[#   9]
          +0.084*[#  10]+0.039*[#   7]+0.039*[#   8]
    |psi|^2 = 0.992
==== e(  10) =    -5.16596 eV ==== 
     psi = 0.499*[#  12]+0.499*[#  16]
    |psi|^2 = 0.997
==== e(  11) =    -4.50884 eV ==== 
     psi = 0.248*[#  13]+0.248*[#  14]+0.248*[#  17]+0.248*[#  18]
    |psi|^2 = 0.993
==== e(  12) =    -4.50884 eV ==== 
     psi = 0.248*[#  13]+0.248*[#  14]+0.248*[#  17]+0.248*[#  18]
    |psi|^2 = 0.993
==== e(  13) =    -2.24147 eV ==== 
     psi = 0.304*[#   7]+0.304*[#   8]+0.186*[#   9]+0.186*[#  10]
    |psi|^2 = 0.982
==== e(  14) =    -2.24147 eV ==== 
     psi = 0.304*[#   7]+0.304*[#   8]+0.186*[#   9]+0.186*[#  10]
    |psi|^2 = 0.982
==== e(  15) =    -1.59983 eV ==== 
     psi = 0.910*[#   6]+0.023*[#  12]+0.023*[#  16]+0.016*[#   2]+0.003*[#  11]
          +0.003*[#  15]
    |psi|^2 = 0.980
==== e(  16) =    -0.42506 eV ==== 
     psi = 0.222*[#   9]+0.222*[#  10]+0.147*[#   7]+0.147*[#   8]+0.063*[#  13]
          +0.063*[#  14]+0.063*[#  17]+0.063*[#  18]
    |psi|^2 = 0.988
==== e(  17) =    -0.42506 eV ==== 
     psi = 0.222*[#   9]+0.222*[#  10]+0.147*[#   7]+0.147*[#   8]+0.063*[#  13]
          +0.063*[#  14]+0.063*[#  17]+0.063*[#  18]
    |psi|^2 = 0.988
==== e(  18) =     1.80087 eV ==== 
     psi = 0.532*[#   2]+0.074*[#  11]+0.074*[#  15]+0.059*[#  12]+0.059*[#  16]
          +0.001*[#   6]
    |psi|^2 = 0.799
==== e(  19) =     2.93383 eV ==== 
 
    |psi|^2 = 0.001
==== e(  20) =     3.18471 eV ==== 
     psi = 0.040*[#   2]+0.006*[#  11]+0.006*[#  15]+0.005*[#  12]+0.005*[#  16]
          +0.001*[#   6]
    |psi|^2 = 0.061
==== e(  21) =     3.38449 eV ==== 
 
    |psi|^2 = 0.001
==== e(  22) =     4.09497 eV ==== 
     psi = 0.063*[#   2]+0.009*[#  11]+0.009*[#  15]+0.007*[#  12]+0.007*[#  16]
          +0.005*[#   6]
    |psi|^2 = 0.101
==== e(  23) =     4.64026 eV ==== 
 
    |psi|^2 = 0.000
==== e(  24) =     6.10719 eV ==== 
     psi = 0.011*[#   2]+0.003*[#   6]+0.002*[#  11]+0.002*[#  15]+0.001*[#  12]
          +0.001*[#  16]
    |psi|^2 = 0.021
==== e(  25) =     6.70106 eV ==== 
     psi = 0.001*[#  13]+0.001*[#  14]+0.001*[#  17]+0.001*[#  18]
    |psi|^2 = 0.004
==== e(  26) =     6.70106 eV ==== 
     psi = 0.001*[#  13]+0.001*[#  14]+0.001*[#  17]+0.001*[#  18]
    |psi|^2 = 0.004
==== e(  27) =     7.24945 eV ==== 
 
    |psi|^2 = 0.000
==== e(  28) =     8.47626 eV ==== 
     psi = 0.012*[#   6]+0.009*[#   2]+0.004*[#  12]+0.004*[#  16]+0.001*[#  11]
          +0.001*[#  15]
    |psi|^2 = 0.032
==== e(  29) =     9.01259 eV ==== 
     psi = 0.005*[#   7]+0.005*[#   8]+0.004*[#   9]+0.004*[#  10]
    |psi|^2 = 0.018
==== e(  30) =     9.01259 eV ==== 
     psi = 0.005*[#   7]+0.005*[#   8]+0.004*[#   9]+0.004*[#  10]
    |psi|^2 = 0.018
==== e(  31) =     9.19571 eV ==== 
     psi = 0.002*[#   2]+0.001*[#   6]
    |psi|^2 = 0.005
==== e(  32) =    10.56076 eV ==== 
 
    |psi|^2 = 0.000

Lowdin Charges: 

     Atom #   1: total charge =  14.9857, s =  2.5319, p =  5.9997, d =  6.4541, 
                 spin up      =   9.2601, s =  1.2779, 
                 spin up      =   9.2601, p =  2.9999, pz=  1.0000, px=  1.0000, py=  1.0000, 
                 spin up      =   9.2601, d =  4.9823, dz2=  0.9974, dxz=  0.9957, dyz=  0.9957, dx2-y2=  0.9967, dxy=  0.9967, 
                 spin down    =   5.7256, s =  1.2541, 
                 spin down    =   5.7256, p =  2.9998, pz=  0.9999, px=  0.9999, py=  0.9999, 
                 spin down    =   5.7256, d =  1.4718, dz2=  0.1236, dxz=  0.3802, dyz=  0.3802, dx2-y2=  0.2938, dxy=  0.2938, 
                 polarization =   3.5346, s =  0.0238, p =  0.0002, d =  3.5106, 
     Atom #   2: total charge =   7.4342, s =  1.9243, p =  5.5099, d =  0.0000, 
                 spin up      =   3.8292, s =  0.9670, 
                 spin up      =   3.8292, p =  2.8622, pz=  0.9577, px=  0.9523, py=  0.9523, 
                 spin up      =   3.8292, d =  0.0000, dz2=  0.0000, dxz=  0.0000, dyz=  0.0000, dx2-y2=  0.0000, dxy=  0.0000, 
                 spin down    =   3.6050, s =  0.9573, 
                 spin down    =   3.6050, p =  2.6476, pz=  0.8943, px=  0.8766, py=  0.8766, 
                 spin down    =   3.6050, d =  0.0000, dz2=  0.0000, dxz=  0.0000, dyz=  0.0000, dx2-y2=  0.0000, dxy=  0.0000, 
                 polarization =   0.2242, s =  0.0096, p =  0.2146, d =  0.0000, 
     Atom #   3: total charge =   7.4342, s =  1.9243, p =  5.5099, d =  0.0000, 
                 spin up      =   3.8292, s =  0.9670, 
                 spin up      =   3.8292, p =  2.8622, pz=  0.9577, px=  0.9523, py=  0.9523, 
                 spin up      =   3.8292, d =  0.0000, dz2=  0.0000, dxz=  0.0000, dyz=  0.0000, dx2-y2=  0.0000, dxy=  0.0000, 
                 spin down    =   3.6050, s =  0.9573, 
                 spin down    =   3.6050, p =  2.6476, pz=  0.8943, px=  0.8766, py=  0.8766, 
                 spin down    =   3.6050, d =  0.0000, dz2=  0.0000, dxz=  0.0000, dyz=  0.0000, dx2-y2=  0.0000, dxy=  0.0000, 
                 polarization =   0.2242, s =  0.0096, p =  0.2146, d =  0.0000, 
     Spilling Parameter:   0.0049
 
     PROJWFC      :     10.33s CPU     28.43s WALL

 
   This run was terminated on:  21:45: 4   9Feb2024            

=------------------------------------------------------------------------------=
   JOB DONE.
=------------------------------------------------------------------------------=
