
     Program BANDS v.7.2 starts on 23Sep2023 at 17:46: 3 

     This program is part of the open-source Quantum ESPRESSO suite
     for quantum simulation of materials; please cite
         "P. Giannozzi et al., J. Phys.:Condens. Matter 21 395502 (2009);
         "P. Giannozzi et al., J. Phys.:Condens. Matter 29 465901 (2017);
         "P. Giannozzi et al., J. Chem. Phys. 152 154105 (2020);
          URL http://www.quantum-espresso.org", 
     in publications or presentations arising from this work. More details at
     http://www.quantum-espresso.org/quote

     Parallel version (MPI), running on    10 processors

     MPI processes distributed on     1 nodes
     R & G space division:  proc/nbgrp/npool/nimage =      10
     30175 MiB available memory on the printing compute node when the environment starts
 

     Reading xml data from directory:

     ./FeCl2.save/
     file Fe.pbe-spn-kjpaw_psl.1.0.0.UPF: wavefunction(s)  3P 3D renormalized
     file Cl.pbe-n-kjpaw_psl.1.0.0.UPF: wavefunction(s)  3S 3P renormalized

     IMPORTANT: XC functional enforced from input :
     Exchange-correlation= PBE
                           (   1   4   3   4   0   0   0)
     Any further DFT definition will be discarded
     Please, verify this is what you really want

 
     Parallelization info
     --------------------
     sticks:   dense  smooth     PW     G-vecs:    dense   smooth      PW
     Min         224      91     25                51288    12975    1993
     Max         225      92     26                51317    12994    2022
     Sum        2245     913    253               513077   129839   20035
 
     Using Slab Decomposition
 

     negative rho (up, down):  1.632E-04 0.000E+00
     Reading collected, re-writing distributed wavefunctions
     high-symmetry point:  0.0000 0.0000 0.0000   x coordinate   0.0000
     high-symmetry point:  0.0000 0.5910 0.0000   x coordinate   0.5910
     high-symmetry point: -0.3412 0.5910 0.0000   x coordinate   0.9323
     high-symmetry point:  0.0000 0.0000 0.0000   x coordinate   1.6147

     Plottable bands (eV) written to file bands.dat.gnu
     Bands written to file bands.dat

 **************************************************************************

                    xk=(   0.00000,   0.00000,   0.00000  )

     point group D_3d (-3m) 
     there are  6 classes
     the character table:

       E     2C3   3C2'  i     2S6   3s_d 
A_1g   1.00  1.00  1.00  1.00  1.00  1.00
A_2g   1.00  1.00 -1.00  1.00  1.00 -1.00
E_g    2.00 -1.00  0.00  2.00 -1.00  0.00
A_1u   1.00  1.00  1.00 -1.00 -1.00 -1.00
A_2u   1.00  1.00 -1.00 -1.00 -1.00  1.00
E_u    2.00 -1.00  0.00 -2.00  1.00  0.00

     the symmetry operations in each class and the name of the first element:

     E        1
                                                                 
     2C3      3    4
                                                                 
     3C2'     2    5    6
                                                                 
     i        7
                                                                 
     2S6      9   10
                                                                 
     3s_d     8   11   12
                                                                 

     Band symmetry, D_3d (-3m)  point group:

     e(  1 -  1) =    -87.74880  eV     1   --> A_1g L_1       
     e(  2 -  3) =    -53.86631  eV     2   --> E_u  L_3'      
     e(  4 -  4) =    -53.85208  eV     1   --> A_2u L_2'      
     e(  5 -  5) =    -18.96398  eV     1   --> A_1g L_1       
     e(  6 -  6) =    -17.73545  eV     1   --> A_2u L_2'      
     e(  7 -  7) =     -7.81681  eV     1   --> A_1g L_1       
     e(  8 -  9) =     -6.32800  eV     2   --> E_g  L_3       
     e( 10 - 10) =     -4.84966  eV     1   --> A_2u L_2'      
     e( 11 - 12) =     -4.40334  eV     2   --> E_u  L_3'      
     e( 13 - 14) =     -2.13531  eV     2   --> E_g  L_3       
     e( 15 - 15) =     -1.54318  eV     1   --> A_1g L_1       
     e( 16 - 17) =     -0.00975  eV     2   --> E_g  L_3       
     e( 18 - 18) =      2.64149  eV     1   --> A_1g L_1       
     e( 19 - 19) =      3.15435  eV     1   --> A_2u L_2'      
     e( 20 - 20) =      3.51496  eV     1   --> A_1g L_1       
     e( 21 - 21) =      3.87671  eV     1   --> A_2u L_2'      
     e( 22 - 22) =      4.67125  eV     1   --> A_2u L_2'      
     e( 23 - 23) =      4.69082  eV     1   --> A_1g L_1       
     e( 24 - 24) =      6.32661  eV     1   --> A_1g L_1       
     e( 25 - 26) =      7.08606  eV     2   --> E_u  L_3'      
     e( 27 - 27) =      7.18896  eV     1   --> A_2u L_2'      
     e( 28 - 28) =      9.10445  eV     1   --> A_1g L_1       
     e( 29 - 30) =      9.69219  eV     2   --> E_g  L_3       
     e( 31 - 31) =     10.45258  eV     1   --> A_2u L_2'      
     e( 32 - 32) =     10.90881  eV     1   --> A_1g L_1       

 **************************************************************************

 **************************************************************************

                    xk=(   0.00000,   0.01182,   0.00000  )

     point group C_s (m)    
     there are  2 classes
     the character table:

       E     s    
A'     1.00  1.00
A''    1.00 -1.00

     the symmetry operations in each class and the name of the first element:

     E        1
                                                                 
     s        2
                                                                 

     Band symmetry, C_s (m)     point group:

     e(  1 -  1) =    -87.74881  eV     1   --> A'             
     e(  2 -  3) =    -53.86640  eV     2   --> A'             
     e(  2 -  3) =    -53.86640  eV     2   --> A''            
     e(  4 -  4) =    -53.85211  eV     1   --> A'             
     e(  5 -  5) =    -18.96313  eV     1   --> A'             
     e(  6 -  6) =    -17.73520  eV     1   --> A'             
     e(  7 -  7) =     -7.81593  eV     1   --> A'             
     e(  8 -  8) =     -6.33119  eV     1   --> A'             
     e(  9 -  9) =     -6.32785  eV     1   --> A''            
     e( 10 - 10) =     -4.84740  eV     1   --> A'             
     e( 11 - 11) =     -4.40919  eV     1   --> A'             
     e( 12 - 12) =     -4.40538  eV     1   --> A''            
     e( 13 - 13) =     -2.13435  eV     1   --> A'             
     e( 14 - 14) =     -2.13364  eV     1   --> A''            
     e( 15 - 15) =     -1.54253  eV     1   --> A'             
     e( 16 - 16) =     -0.01266  eV     1   --> A'             
     e( 17 - 17) =     -0.01054  eV     1   --> A''            
     e( 18 - 18) =      2.64428  eV     1   --> A'             
     e( 19 - 19) =      3.15606  eV     1   --> A'             
     e( 20 - 20) =      3.51706  eV     1   --> A'             
     e( 21 - 21) =      3.88250  eV     1   --> A'             
     e( 22 - 22) =      4.67283  eV     1   --> A'             
     e( 23 - 23) =      4.69356  eV     1   --> A'             
     e( 24 - 24) =      6.32775  eV     1   --> A'             
     e( 25 - 25) =      7.08295  eV     1   --> A'             
     e( 26 - 26) =      7.08944  eV     1   --> A''            
     e( 27 - 27) =      7.19006  eV     1   --> A'             
     e( 28 - 28) =      9.10623  eV     1   --> A'             
     e( 29 - 29) =      9.68305  eV     1   --> A'             
     e( 30 - 30) =      9.69333  eV     1   --> A''            
     e( 31 - 31) =     10.45736  eV     1   --> A'             
     e( 32 - 32) =     10.90149  eV     1   --> A'             

 **************************************************************************

 **************************************************************************

                    xk=(   0.00000,   0.02364,   0.00000  )

     Band symmetry, C_s (m)     point group:

     e(  1 -  1) =    -87.74882  eV     1   --> A'             
     e(  2 -  3) =    -53.86648  eV     2   --> A'             
     e(  2 -  3) =    -53.86648  eV     2   --> A''            
     e(  4 -  4) =    -53.85213  eV     1   --> A'             
     e(  5 -  5) =    -18.96056  eV     1   --> A'             
     e(  6 -  6) =    -17.73444  eV     1   --> A'             
     e(  7 -  7) =     -7.81329  eV     1   --> A'             
     e(  8 -  8) =     -6.34063  eV     1   --> A'             
     e(  9 -  9) =     -6.32735  eV     1   --> A''            
     e( 10 - 10) =     -4.84070  eV     1   --> A'             
     e( 11 - 11) =     -4.42660  eV     1   --> A'             
     e( 12 - 12) =     -4.41148  eV     1   --> A''            
     e( 13 - 13) =     -2.13138  eV     1   --> A'             
     e( 14 - 14) =     -2.12853  eV     1   --> A''            
     e( 15 - 15) =     -1.54054  eV     1   --> A'             
     e( 16 - 16) =     -0.02118  eV     1   --> A'             
     e( 17 - 17) =     -0.01278  eV     1   --> A''            
     e( 18 - 18) =      2.65262  eV     1   --> A'             
     e( 19 - 19) =      3.16116  eV     1   --> A'             
     e( 20 - 20) =      3.52337  eV     1   --> A'             
     e( 21 - 21) =      3.89977  eV     1   --> A'             
     e( 22 - 22) =      4.67754  eV     1   --> A'             
     e( 23 - 23) =      4.70179  eV     1   --> A'             
     e( 24 - 24) =      6.33111  eV     1   --> A'             
     e( 25 - 25) =      7.07370  eV     1   --> A'             
     e( 26 - 26) =      7.09958  eV     1   --> A''            
     e( 27 - 27) =      7.19339  eV     1   --> A'             
     e( 28 - 28) =      9.11153  eV     1   --> A'             
     e( 29 - 29) =      9.65654  eV     1   --> A'             
     e( 30 - 30) =      9.69676  eV     1   --> A''            
     e( 31 - 31) =     10.47087  eV     1   --> A'             
     e( 32 - 32) =     10.87964  eV     1   --> A'             

 **************************************************************************

 **************************************************************************

                    xk=(   0.00000,   0.03546,   0.00000  )

     Band symmetry, C_s (m)     point group:

     e(  1 -  1) =    -87.74881  eV     1   --> A'             
     e(  2 -  2) =    -53.86654  eV     1   --> A'             
     e(  3 -  3) =    -53.86643  eV     1   --> A''            
     e(  4 -  4) =    -53.85211  eV     1   --> A'             
     e(  5 -  5) =    -18.95629  eV     1   --> A'             
     e(  6 -  6) =    -17.73317  eV     1   --> A'             
     e(  7 -  7) =     -7.80889  eV     1   --> A'             
     e(  8 -  8) =     -6.35608  eV     1   --> A'             
     e(  9 -  9) =     -6.32651  eV     1   --> A''            
     e( 10 - 10) =     -4.82987  eV     1   --> A'             
     e( 11 - 11) =     -4.45523  eV     1   --> A'             
     e( 12 - 12) =     -4.42153  eV     1   --> A''            
     e( 13 - 13) =     -2.12658  eV     1   --> A'             
     e( 14 - 14) =     -2.12005  eV     1   --> A''            
     e( 15 - 15) =     -1.53723  eV     1   --> A'             
     e( 16 - 16) =     -0.03506  eV     1   --> A'             
     e( 17 - 17) =     -0.01642  eV     1   --> A''            
     e( 18 - 18) =      2.66642  eV     1   --> A'             
     e( 19 - 19) =      3.16961  eV     1   --> A'             
     e( 20 - 20) =      3.53388  eV     1   --> A'             
     e( 21 - 21) =      3.92825  eV     1   --> A'             
     e( 22 - 22) =      4.68539  eV     1   --> A'             
     e( 23 - 23) =      4.71547  eV     1   --> A'             
     e( 24 - 24) =      6.33651  eV     1   --> A'             
     e( 25 - 25) =      7.05865  eV     1   --> A'             
     e( 26 - 26) =      7.11640  eV     1   --> A''            
     e( 27 - 27) =      7.19909  eV     1   --> A'             
     e( 28 - 28) =      9.12031  eV     1   --> A'             
     e( 29 - 29) =      9.61496  eV     1   --> A'             
     e( 30 - 30) =      9.70243  eV     1   --> A''            
     e( 31 - 31) =     10.49091  eV     1   --> A'             
     e( 32 - 32) =     10.84361  eV     1   --> A'             

 **************************************************************************

 **************************************************************************

                    xk=(   0.00000,   0.04728,   0.00000  )

     Band symmetry, C_s (m)     point group:

     e(  1 -  1) =    -87.74881  eV     1   --> A'             
     e(  2 -  2) =    -53.86664  eV     1   --> A'             
     e(  3 -  3) =    -53.86646  eV     1   --> A''            
     e(  4 -  4) =    -53.85213  eV     1   --> A'             
     e(  5 -  5) =    -18.95033  eV     1   --> A'             
     e(  6 -  6) =    -17.73141  eV     1   --> A'             
     e(  7 -  7) =     -7.80277  eV     1   --> A'             
     e(  8 -  8) =     -6.37715  eV     1   --> A'             
     e(  9 -  9) =     -6.32534  eV     1   --> A''            
     e( 10 - 10) =     -4.81536  eV     1   --> A'             
     e( 11 - 11) =     -4.49450  eV     1   --> A'             
     e( 12 - 12) =     -4.43542  eV     1   --> A''            
     e( 13 - 13) =     -2.12039  eV     1   --> A'             
     e( 14 - 14) =     -2.10841  eV     1   --> A''            
     e( 15 - 15) =     -1.53266  eV     1   --> A'             
     e( 16 - 16) =     -0.05393  eV     1   --> A'             
     e( 17 - 17) =     -0.02142  eV     1   --> A''            
     e( 18 - 18) =      2.68556  eV     1   --> A'             
     e( 19 - 19) =      3.18137  eV     1   --> A'             
     e( 20 - 20) =      3.54857  eV     1   --> A'             
     e( 21 - 21) =      3.96747  eV     1   --> A'             
     e( 22 - 22) =      4.69638  eV     1   --> A'             
     e( 23 - 23) =      4.73459  eV     1   --> A'             
     e( 24 - 24) =      6.34359  eV     1   --> A'             
     e( 25 - 25) =      7.03853  eV     1   --> A'             
     e( 26 - 26) =      7.13981  eV     1   --> A''            
     e( 27 - 27) =      7.20724  eV     1   --> A'             
     e( 28 - 28) =      9.13247  eV     1   --> A'             
     e( 29 - 29) =      9.56116  eV     1   --> A'             
     e( 30 - 30) =      9.71029  eV     1   --> A''            
     e( 31 - 31) =     10.51472  eV     1   --> A'             
     e( 32 - 32) =     10.79404  eV     1   --> A'             

 **************************************************************************

 **************************************************************************

                    xk=(   0.00000,   0.05910,   0.00000  )

     Band symmetry, C_s (m)     point group:

     e(  1 -  1) =    -87.74880  eV     1   --> A'             
     e(  2 -  2) =    -53.86677  eV     1   --> A'             
     e(  3 -  3) =    -53.86648  eV     1   --> A''            
     e(  4 -  4) =    -53.85210  eV     1   --> A'             
     e(  5 -  5) =    -18.94268  eV     1   --> A'             
     e(  6 -  6) =    -17.72916  eV     1   --> A'             
     e(  7 -  7) =     -7.79495  eV     1   --> A'             
     e(  8 -  8) =     -6.40336  eV     1   --> A'             
     e(  9 -  9) =     -6.32382  eV     1   --> A''            
     e( 10 - 10) =     -4.79775  eV     1   --> A'             
     e( 11 - 11) =     -4.54367  eV     1   --> A'             
     e( 12 - 12) =     -4.45294  eV     1   --> A''            
     e( 13 - 13) =     -2.11315  eV     1   --> A'             
     e( 14 - 14) =     -2.09379  eV     1   --> A''            
     e( 15 - 15) =     -1.52682  eV     1   --> A'             
     e( 16 - 16) =     -0.07726  eV     1   --> A'             
     e( 17 - 17) =     -0.02769  eV     1   --> A''            
     e( 18 - 18) =      2.70986  eV     1   --> A'             
     e( 19 - 19) =      3.19635  eV     1   --> A'             
     e( 20 - 20) =      3.56741  eV     1   --> A'             
     e( 21 - 21) =      4.01679  eV     1   --> A'             
     e( 22 - 22) =      4.71048  eV     1   --> A'             
     e( 23 - 23) =      4.75909  eV     1   --> A'             
     e( 24 - 24) =      6.35183  eV     1   --> A'             
     e( 25 - 25) =      7.01444  eV     1   --> A'             
     e( 26 - 26) =      7.16968  eV     1   --> A''            
     e( 27 - 27) =      7.21785  eV     1   --> A'             
     e( 28 - 28) =      9.14786  eV     1   --> A'             
     e( 29 - 29) =      9.49796  eV     1   --> A'             
     e( 30 - 30) =      9.72024  eV     1   --> A''            
     e( 31 - 31) =     10.53935  eV     1   --> A'             
     e( 32 - 32) =     10.73213  eV     1   --> A'             

 **************************************************************************

 **************************************************************************

                    xk=(   0.00000,   0.07092,   0.00000  )

     Band symmetry, C_s (m)     point group:

     e(  1 -  1) =    -87.74880  eV     1   --> A'             
     e(  2 -  2) =    -53.86696  eV     1   --> A'             
     e(  3 -  3) =    -53.86654  eV     1   --> A''            
     e(  4 -  4) =    -53.85209  eV     1   --> A'             
     e(  5 -  5) =    -18.93336  eV     1   --> A'             
     e(  6 -  6) =    -17.72644  eV     1   --> A'             
     e(  7 -  7) =     -7.78546  eV     1   --> A'             
     e(  8 -  8) =     -6.43418  eV     1   --> A'             
     e(  9 -  9) =     -6.32200  eV     1   --> A''            
     e( 10 - 10) =     -4.77781  eV     1   --> A'             
     e( 11 - 11) =     -4.60178  eV     1   --> A'             
     e( 12 - 12) =     -4.47388  eV     1   --> A''            
     e( 13 - 13) =     -2.10538  eV     1   --> A'             
     e( 14 - 14) =     -2.07651  eV     1   --> A''            
     e( 15 - 15) =     -1.51982  eV     1   --> A'             
     e( 16 - 16) =     -0.10446  eV     1   --> A'             
     e( 17 - 17) =     -0.03518  eV     1   --> A''            
     e( 18 - 18) =      2.73910  eV     1   --> A'             
     e( 19 - 19) =      3.21449  eV     1   --> A'             
     e( 20 - 20) =      3.59036  eV     1   --> A'             
     e( 21 - 21) =      4.07543  eV     1   --> A'             
     e( 22 - 22) =      4.72770  eV     1   --> A'             
     e( 23 - 23) =      4.78892  eV     1   --> A'             
     e( 24 - 24) =      6.36044  eV     1   --> A'             
     e( 25 - 25) =      6.98796  eV     1   --> A'             
     e( 26 - 26) =      7.20581  eV     1   --> A''            
     e( 27 - 27) =      7.23086  eV     1   --> A'             
     e( 28 - 28) =      9.16628  eV     1   --> A'             
     e( 29 - 29) =      9.42786  eV     1   --> A'             
     e( 30 - 30) =      9.73215  eV     1   --> A''            
     e( 31 - 31) =     10.56059  eV     1   --> A'             
     e( 32 - 32) =     10.66086  eV     1   --> A'             

 **************************************************************************

 **************************************************************************

                    xk=(   0.00000,   0.08275,   0.00000  )

     Band symmetry, C_s (m)     point group:

     e(  1 -  1) =    -87.74879  eV     1   --> A'             
     e(  2 -  2) =    -53.86715  eV     1   --> A'             
     e(  3 -  3) =    -53.86659  eV     1   --> A''            
     e(  4 -  4) =    -53.85206  eV     1   --> A'             
     e(  5 -  5) =    -18.92239  eV     1   --> A'             
     e(  6 -  6) =    -17.72325  eV     1   --> A'             
     e(  7 -  7) =     -7.77437  eV     1   --> A'             
     e(  8 -  8) =     -6.46902  eV     1   --> A'             
     e(  9 -  9) =     -6.31984  eV     1   --> A''            
     e( 10 - 10) =     -4.75681  eV     1   --> A'             
     e( 11 - 11) =     -4.66731  eV     1   --> A'             
     e( 12 - 12) =     -4.49798  eV     1   --> A''            
     e( 13 - 13) =     -2.09746  eV     1   --> A'             
     e( 14 - 14) =     -2.05678  eV     1   --> A''            
     e( 15 - 15) =     -1.51171  eV     1   --> A'             
     e( 16 - 16) =     -0.13479  eV     1   --> A'             
     e( 17 - 17) =     -0.04370  eV     1   --> A''            
     e( 18 - 18) =      2.77301  eV     1   --> A'             
     e( 19 - 19) =      3.23571  eV     1   --> A'             
     e( 20 - 20) =      3.61737  eV     1   --> A'             
     e( 21 - 21) =      4.14244  eV     1   --> A'             
     e( 22 - 22) =      4.74803  eV     1   --> A'             
     e( 23 - 23) =      4.82395  eV     1   --> A'             
     e( 24 - 24) =      6.36833  eV     1   --> A'             
     e( 25 - 25) =      6.96109  eV     1   --> A'             
     e( 26 - 26) =      7.24622  eV     1   --> A'             
     e( 27 - 27) =      7.24799  eV     1   --> A''            
     e( 28 - 28) =      9.18731  eV     1   --> A'             
     e( 29 - 29) =      9.35313  eV     1   --> A'             
     e( 30 - 30) =      9.74589  eV     1   --> A''            
     e( 31 - 31) =     10.55097  eV     1   --> A'             
     e( 32 - 32) =     10.60709  eV     1   --> A'             

 **************************************************************************

 **************************************************************************

                    xk=(   0.00000,   0.09457,   0.00000  )

     Band symmetry, C_s (m)     point group:

     e(  1 -  1) =    -87.74877  eV     1   --> A'             
     e(  2 -  2) =    -53.86735  eV     1   --> A'             
     e(  3 -  3) =    -53.86664  eV     1   --> A''            
     e(  4 -  4) =    -53.85202  eV     1   --> A'             
     e(  5 -  5) =    -18.90980  eV     1   --> A'             
     e(  6 -  6) =    -17.71961  eV     1   --> A'             
     e(  7 -  7) =     -7.76172  eV     1   --> A'             
     e(  8 -  8) =     -6.50735  eV     1   --> A'             
     e(  9 -  9) =     -6.31737  eV     1   --> A''            
     e( 10 - 10) =     -4.75285  eV     1   --> A'             
     e( 11 - 11) =     -4.72194  eV     1   --> A'             
     e( 12 - 12) =     -4.52498  eV     1   --> A''            
     e( 13 - 13) =     -2.08981  eV     1   --> A'             
     e( 14 - 14) =     -2.03494  eV     1   --> A''            
     e( 15 - 15) =     -1.50261  eV     1   --> A'             
     e( 16 - 16) =     -0.16754  eV     1   --> A'             
     e( 17 - 17) =     -0.05313  eV     1   --> A''            
     e( 18 - 18) =      2.81132  eV     1   --> A'             
     e( 19 - 19) =      3.25994  eV     1   --> A'             
     e( 20 - 20) =      3.64838  eV     1   --> A'             
     e( 21 - 21) =      4.21672  eV     1   --> A'             
     e( 22 - 22) =      4.77148  eV     1   --> A'             
     e( 23 - 23) =      4.86406  eV     1   --> A'             
     e( 24 - 24) =      6.37411  eV     1   --> A'             
     e( 25 - 25) =      6.93627  eV     1   --> A'             
     e( 26 - 26) =      7.26384  eV     1   --> A'             
     e( 27 - 27) =      7.29596  eV     1   --> A''            
     e( 28 - 28) =      9.20878  eV     1   --> A'             
     e( 29 - 29) =      9.27739  eV     1   --> A'             
     e( 30 - 30) =      9.76127  eV     1   --> A''            
     e( 31 - 31) =     10.46903  eV     1   --> A'             
     e( 32 - 32) =     10.61200  eV     1   --> A'             

 **************************************************************************

 **************************************************************************

                    xk=(   0.00000,   0.10639,   0.00000  )

     Band symmetry, C_s (m)     point group:

     e(  1 -  1) =    -87.74876  eV     1   --> A'             
     e(  2 -  2) =    -53.86758  eV     1   --> A'             
     e(  3 -  3) =    -53.86668  eV     1   --> A''            
     e(  4 -  4) =    -53.85199  eV     1   --> A'             
     e(  5 -  5) =    -18.89561  eV     1   --> A'             
     e(  6 -  6) =    -17.71555  eV     1   --> A'             
     e(  7 -  7) =     -7.74759  eV     1   --> A'             
     e(  8 -  8) =     -6.54863  eV     1   --> A'             
     e(  9 -  9) =     -6.31458  eV     1   --> A''            
     e( 10 - 10) =     -4.82561  eV     1   --> A'             
     e( 11 - 11) =     -4.70570  eV     1   --> A'             
     e( 12 - 12) =     -4.55458  eV     1   --> A''            
     e( 13 - 13) =     -2.08275  eV     1   --> A'             
     e( 14 - 14) =     -2.01131  eV     1   --> A''            
     e( 15 - 15) =     -1.49267  eV     1   --> A'             
     e( 16 - 16) =     -0.20197  eV     1   --> A'             
     e( 17 - 17) =     -0.06332  eV     1   --> A''            
     e( 18 - 18) =      2.85373  eV     1   --> A'             
     e( 19 - 19) =      3.28712  eV     1   --> A'             
     e( 20 - 20) =      3.68332  eV     1   --> A'             
     e( 21 - 21) =      4.29702  eV     1   --> A'             
     e( 22 - 22) =      4.79807  eV     1   --> A'             
     e( 23 - 23) =      4.90905  eV     1   --> A'             
     e( 24 - 24) =      6.37618  eV     1   --> A'             
     e( 25 - 25) =      6.91626  eV     1   --> A'             
     e( 26 - 26) =      7.28365  eV     1   --> A'             
     e( 27 - 27) =      7.34938  eV     1   --> A''            
     e( 28 - 28) =      9.18576  eV     1   --> A'             
     e( 29 - 29) =      9.24675  eV     1   --> A'             
     e( 30 - 30) =      9.77808  eV     1   --> A''            
     e( 31 - 31) =     10.36975  eV     1   --> A'             
     e( 32 - 32) =     10.62049  eV     1   --> A'             

 **************************************************************************

 **************************************************************************

                    xk=(   0.00000,   0.11821,   0.00000  )

     Band symmetry, C_s (m)     point group:

     e(  1 -  1) =    -87.74874  eV     1   --> A'             
     e(  2 -  2) =    -53.86784  eV     1   --> A'             
     e(  3 -  3) =    -53.86676  eV     1   --> A''            
     e(  4 -  4) =    -53.85195  eV     1   --> A'             
     e(  5 -  5) =    -18.87985  eV     1   --> A'             
     e(  6 -  6) =    -17.71108  eV     1   --> A'             
     e(  7 -  7) =     -7.73207  eV     1   --> A'             
     e(  8 -  8) =     -6.59239  eV     1   --> A'             
     e(  9 -  9) =     -6.31150  eV     1   --> A''            
     e( 10 - 10) =     -4.91052  eV     1   --> A'             
     e( 11 - 11) =     -4.68288  eV     1   --> A'             
     e( 12 - 12) =     -4.58651  eV     1   --> A''            
     e( 13 - 13) =     -2.07655  eV     1   --> A'             
     e( 14 - 14) =     -1.98628  eV     1   --> A''            
     e( 15 - 15) =     -1.48205  eV     1   --> A'             
     e( 16 - 16) =     -0.23731  eV     1   --> A'             
     e( 17 - 17) =     -0.07412  eV     1   --> A''            
     e( 18 - 18) =      2.89993  eV     1   --> A'             
     e( 19 - 19) =      3.31717  eV     1   --> A'             
     e( 20 - 20) =      3.72211  eV     1   --> A'             
     e( 21 - 21) =      4.38189  eV     1   --> A'             
     e( 22 - 22) =      4.82789  eV     1   --> A'             
     e( 23 - 23) =      4.95868  eV     1   --> A'             
     e( 24 - 24) =      6.37310  eV     1   --> A'             
     e( 25 - 25) =      6.90374  eV     1   --> A'             
     e( 26 - 26) =      7.30555  eV     1   --> A'             
     e( 27 - 27) =      7.40791  eV     1   --> A''            
     e( 28 - 28) =      9.10812  eV     1   --> A'             
     e( 29 - 29) =      9.27224  eV     1   --> A'             
     e( 30 - 30) =      9.79607  eV     1   --> A''            
     e( 31 - 31) =     10.26403  eV     1   --> A'             
     e( 32 - 32) =     10.62173  eV     1   --> A'             

 **************************************************************************

 **************************************************************************

                    xk=(   0.00000,   0.13003,   0.00000  )

     Band symmetry, C_s (m)     point group:

     e(  1 -  1) =    -87.74873  eV     1   --> A'             
     e(  2 -  2) =    -53.86815  eV     1   --> A'             
     e(  3 -  3) =    -53.86683  eV     1   --> A''            
     e(  4 -  4) =    -53.85192  eV     1   --> A'             
     e(  5 -  5) =    -18.86255  eV     1   --> A'             
     e(  6 -  6) =    -17.70623  eV     1   --> A'             
     e(  7 -  7) =     -7.71526  eV     1   --> A'             
     e(  8 -  8) =     -6.63820  eV     1   --> A'             
     e(  9 -  9) =     -6.30812  eV     1   --> A''            
     e( 10 - 10) =     -5.00045  eV     1   --> A'             
     e( 11 - 11) =     -4.66030  eV     1   --> A'             
     e( 12 - 12) =     -4.62049  eV     1   --> A''            
     e( 13 - 13) =     -2.07139  eV     1   --> A'             
     e( 14 - 14) =     -1.96015  eV     1   --> A''            
     e( 15 - 15) =     -1.47094  eV     1   --> A'             
     e( 16 - 16) =     -0.27285  eV     1   --> A'             
     e( 17 - 17) =     -0.08533  eV     1   --> A''            
     e( 18 - 18) =      2.94961  eV     1   --> A'             
     e( 19 - 19) =      3.35003  eV     1   --> A'             
     e( 20 - 20) =      3.76464  eV     1   --> A'             
     e( 21 - 21) =      4.46960  eV     1   --> A'             
     e( 22 - 22) =      4.86110  eV     1   --> A'             
     e( 23 - 23) =      5.01260  eV     1   --> A'             
     e( 24 - 24) =      6.36416  eV     1   --> A'             
     e( 25 - 25) =      6.90080  eV     1   --> A'             
     e( 26 - 26) =      7.32950  eV     1   --> A'             
     e( 27 - 27) =      7.47112  eV     1   --> A''            
     e( 28 - 28) =      9.02792  eV     1   --> A'             
     e( 29 - 29) =      9.30240  eV     1   --> A'             
     e( 30 - 30) =      9.81499  eV     1   --> A''            
     e( 31 - 31) =     10.15499  eV     1   --> A'             
     e( 32 - 32) =     10.61299  eV     1   --> A'             

 **************************************************************************

 **************************************************************************

                    xk=(   0.00000,   0.14185,   0.00000  )

     Band symmetry, C_s (m)     point group:

     e(  1 -  1) =    -87.74871  eV     1   --> A'             
     e(  2 -  2) =    -53.86848  eV     1   --> A'             
     e(  3 -  3) =    -53.86692  eV     1   --> A''            
     e(  4 -  4) =    -53.85187  eV     1   --> A'             
     e(  5 -  5) =    -18.84376  eV     1   --> A'             
     e(  6 -  6) =    -17.70102  eV     1   --> A'             
     e(  7 -  7) =     -7.69729  eV     1   --> A'             
     e(  8 -  8) =     -6.68566  eV     1   --> A'             
     e(  9 -  9) =     -6.30446  eV     1   --> A''            
     e( 10 - 10) =     -5.09413  eV     1   --> A'             
     e( 11 - 11) =     -4.65624  eV     1   --> A''            
     e( 12 - 12) =     -4.63890  eV     1   --> A'             
     e( 13 - 13) =     -2.06733  eV     1   --> A'             
     e( 14 - 14) =     -1.93327  eV     1   --> A''            
     e( 15 - 15) =     -1.45952  eV     1   --> A'             
     e( 16 - 16) =     -0.30784  eV     1   --> A'             
     e( 17 - 17) =     -0.09680  eV     1   --> A''            
     e( 18 - 18) =      3.00250  eV     1   --> A'             
     e( 19 - 19) =      3.38564  eV     1   --> A'             
     e( 20 - 20) =      3.81082  eV     1   --> A'             
     e( 21 - 21) =      4.55806  eV     1   --> A'             
     e( 22 - 22) =      4.89799  eV     1   --> A'             
     e( 23 - 23) =      5.07042  eV     1   --> A'             
     e( 24 - 24) =      6.35000  eV     1   --> A'             
     e( 25 - 25) =      6.90826  eV     1   --> A'             
     e( 26 - 26) =      7.35546  eV     1   --> A'             
     e( 27 - 27) =      7.53851  eV     1   --> A''            
     e( 28 - 28) =      8.94882  eV     1   --> A'             
     e( 29 - 29) =      9.33371  eV     1   --> A'             
     e( 30 - 30) =      9.83458  eV     1   --> A''            
     e( 31 - 31) =     10.04535  eV     1   --> A'             
     e( 32 - 32) =     10.59271  eV     1   --> A'             

 **************************************************************************

 **************************************************************************

                    xk=(   0.00000,   0.15367,   0.00000  )

     Band symmetry, C_s (m)     point group:

     e(  1 -  1) =    -87.74869  eV     1   --> A'             
     e(  2 -  2) =    -53.86881  eV     1   --> A'             
     e(  3 -  3) =    -53.86700  eV     1   --> A''            
     e(  4 -  4) =    -53.85183  eV     1   --> A'             
     e(  5 -  5) =    -18.82352  eV     1   --> A'             
     e(  6 -  6) =    -17.69549  eV     1   --> A'             
     e(  7 -  7) =     -7.67830  eV     1   --> A'             
     e(  8 -  8) =     -6.73444  eV     1   --> A'             
     e(  9 -  9) =     -6.30051  eV     1   --> A''            
     e( 10 - 10) =     -5.19061  eV     1   --> A'             
     e( 11 - 11) =     -4.69349  eV     1   --> A''            
     e( 12 - 12) =     -4.61930  eV     1   --> A'             
     e( 13 - 13) =     -2.06446  eV     1   --> A'             
     e( 14 - 14) =     -1.90594  eV     1   --> A''            
     e( 15 - 15) =     -1.44801  eV     1   --> A'             
     e( 16 - 16) =     -0.34161  eV     1   --> A'             
     e( 17 - 17) =     -0.10829  eV     1   --> A''            
     e( 18 - 18) =      3.05830  eV     1   --> A'             
     e( 19 - 19) =      3.42390  eV     1   --> A'             
     e( 20 - 20) =      3.86053  eV     1   --> A'             
     e( 21 - 21) =      4.64468  eV     1   --> A'             
     e( 22 - 22) =      4.93911  eV     1   --> A'             
     e( 23 - 23) =      5.13163  eV     1   --> A'             
     e( 24 - 24) =      6.33275  eV     1   --> A'             
     e( 25 - 25) =      6.92565  eV     1   --> A'             
     e( 26 - 26) =      7.38347  eV     1   --> A'             
     e( 27 - 27) =      7.60954  eV     1   --> A''            
     e( 28 - 28) =      8.87227  eV     1   --> A'             
     e( 29 - 29) =      9.36399  eV     1   --> A'             
     e( 30 - 30) =      9.85456  eV     1   --> A''            
     e( 31 - 31) =      9.93850  eV     1   --> A'             
     e( 32 - 32) =     10.56032  eV     1   --> A'             

 **************************************************************************

 **************************************************************************

                    xk=(   0.00000,   0.16549,   0.00000  )

     Band symmetry, C_s (m)     point group:

     e(  1 -  1) =    -87.74868  eV     1   --> A'             
     e(  2 -  2) =    -53.86919  eV     1   --> A'             
     e(  3 -  3) =    -53.86709  eV     1   --> A''            
     e(  4 -  4) =    -53.85180  eV     1   --> A'             
     e(  5 -  5) =    -18.80186  eV     1   --> A'             
     e(  6 -  6) =    -17.68966  eV     1   --> A'             
     e(  7 -  7) =     -7.65847  eV     1   --> A'             
     e(  8 -  8) =     -6.78426  eV     1   --> A'             
     e(  9 -  9) =     -6.29630  eV     1   --> A''            
     e( 10 - 10) =     -5.28902  eV     1   --> A'             
     e( 11 - 11) =     -4.73201  eV     1   --> A''            
     e( 12 - 12) =     -4.60199  eV     1   --> A'             
     e( 13 - 13) =     -2.06279  eV     1   --> A'             
     e( 14 - 14) =     -1.87848  eV     1   --> A''            
     e( 15 - 15) =     -1.43661  eV     1   --> A'             
     e( 16 - 16) =     -0.37356  eV     1   --> A'             
     e( 17 - 17) =     -0.11965  eV     1   --> A''            
     e( 18 - 18) =      3.11677  eV     1   --> A'             
     e( 19 - 19) =      3.46473  eV     1   --> A'             
     e( 20 - 20) =      3.91365  eV     1   --> A'             
     e( 21 - 21) =      4.72627  eV     1   --> A'             
     e( 22 - 22) =      4.98522  eV     1   --> A'             
     e( 23 - 23) =      5.19566  eV     1   --> A'             
     e( 24 - 24) =      6.31565  eV     1   --> A'             
     e( 25 - 25) =      6.95144  eV     1   --> A'             
     e( 26 - 26) =      7.41365  eV     1   --> A'             
     e( 27 - 27) =      7.68355  eV     1   --> A''            
     e( 28 - 28) =      8.79952  eV     1   --> A'             
     e( 29 - 29) =      9.38920  eV     1   --> A'             
     e( 30 - 30) =      9.83976  eV     1   --> A'             
     e( 31 - 31) =      9.87474  eV     1   --> A''            
     e( 32 - 32) =     10.51637  eV     1   --> A'             

 **************************************************************************

 **************************************************************************

                    xk=(   0.00000,   0.17731,   0.00000  )

     Band symmetry, C_s (m)     point group:

     e(  1 -  1) =    -87.74866  eV     1   --> A'             
     e(  2 -  2) =    -53.86956  eV     1   --> A'             
     e(  3 -  3) =    -53.86719  eV     1   --> A''            
     e(  4 -  4) =    -53.85175  eV     1   --> A'             
     e(  5 -  5) =    -18.77884  eV     1   --> A'             
     e(  6 -  6) =    -17.68356  eV     1   --> A'             
     e(  7 -  7) =     -7.63802  eV     1   --> A'             
     e(  8 -  8) =     -6.83487  eV     1   --> A'             
     e(  9 -  9) =     -6.29182  eV     1   --> A''            
     e( 10 - 10) =     -5.38851  eV     1   --> A'             
     e( 11 - 11) =     -4.77155  eV     1   --> A''            
     e( 12 - 12) =     -4.58739  eV     1   --> A'             
     e( 13 - 13) =     -2.06224  eV     1   --> A'             
     e( 14 - 14) =     -1.85120  eV     1   --> A''            
     e( 15 - 15) =     -1.42546  eV     1   --> A'             
     e( 16 - 16) =     -0.40307  eV     1   --> A'             
     e( 17 - 17) =     -0.13067  eV     1   --> A''            
     e( 18 - 18) =      3.17764  eV     1   --> A'             
     e( 19 - 19) =      3.50804  eV     1   --> A'             
     e( 20 - 20) =      3.97007  eV     1   --> A'             
     e( 21 - 21) =      4.79928  eV     1   --> A'             
     e( 22 - 22) =      5.03707  eV     1   --> A'             
     e( 23 - 23) =      5.26191  eV     1   --> A'             
     e( 24 - 24) =      6.30256  eV     1   --> A'             
     e( 25 - 25) =      6.98357  eV     1   --> A'             
     e( 26 - 26) =      7.44626  eV     1   --> A'             
     e( 27 - 27) =      7.75979  eV     1   --> A''            
     e( 28 - 28) =      8.73184  eV     1   --> A'             
     e( 29 - 29) =      9.40067  eV     1   --> A'             
     e( 30 - 30) =      9.75893  eV     1   --> A'             
     e( 31 - 31) =      9.89500  eV     1   --> A''            
     e( 32 - 32) =     10.46238  eV     1   --> A'             

 **************************************************************************

 **************************************************************************

                    xk=(   0.00000,   0.18913,   0.00000  )

     Band symmetry, C_s (m)     point group:

     e(  1 -  1) =    -87.74864  eV     1   --> A'             
     e(  2 -  2) =    -53.86994  eV     1   --> A'             
     e(  3 -  3) =    -53.86728  eV     1   --> A''            
     e(  4 -  4) =    -53.85169  eV     1   --> A'             
     e(  5 -  5) =    -18.75452  eV     1   --> A'             
     e(  6 -  6) =    -17.67724  eV     1   --> A'             
     e(  7 -  7) =     -7.61720  eV     1   --> A'             
     e(  8 -  8) =     -6.88607  eV     1   --> A'             
     e(  9 -  9) =     -6.28709  eV     1   --> A''            
     e( 10 - 10) =     -5.48825  eV     1   --> A'             
     e( 11 - 11) =     -4.81190  eV     1   --> A''            
     e( 12 - 12) =     -4.57587  eV     1   --> A'             
     e( 13 - 13) =     -2.06278  eV     1   --> A'             
     e( 14 - 14) =     -1.82433  eV     1   --> A''            
     e( 15 - 15) =     -1.41477  eV     1   --> A'             
     e( 16 - 16) =     -0.42965  eV     1   --> A'             
     e( 17 - 17) =     -0.14117  eV     1   --> A''            
     e( 18 - 18) =      3.24069  eV     1   --> A'             
     e( 19 - 19) =      3.55372  eV     1   --> A'             
     e( 20 - 20) =      4.02965  eV     1   --> A'             
     e( 21 - 21) =      4.86072  eV     1   --> A'             
     e( 22 - 22) =      5.09450  eV     1   --> A'             
     e( 23 - 23) =      5.32984  eV     1   --> A'             
     e( 24 - 24) =      6.29738  eV     1   --> A'             
     e( 25 - 25) =      7.01979  eV     1   --> A'             
     e( 26 - 26) =      7.48176  eV     1   --> A'             
     e( 27 - 27) =      7.83740  eV     1   --> A''            
     e( 28 - 28) =      8.67060  eV     1   --> A'             
     e( 29 - 29) =      9.38389  eV     1   --> A'             
     e( 30 - 30) =      9.71147  eV     1   --> A'             
     e( 31 - 31) =      9.91537  eV     1   --> A''            
     e( 32 - 32) =     10.40047  eV     1   --> A'             

 **************************************************************************

 **************************************************************************

                    xk=(   0.00000,   0.20095,   0.00000  )

     Band symmetry, C_s (m)     point group:

     e(  1 -  1) =    -87.74861  eV     1   --> A'             
     e(  2 -  2) =    -53.87036  eV     1   --> A'             
     e(  3 -  3) =    -53.86738  eV     1   --> A''            
     e(  4 -  4) =    -53.85161  eV     1   --> A'             
     e(  5 -  5) =    -18.72894  eV     1   --> A'             
     e(  6 -  6) =    -17.67073  eV     1   --> A'             
     e(  7 -  7) =     -7.59632  eV     1   --> A'             
     e(  8 -  8) =     -6.93768  eV     1   --> A'             
     e(  9 -  9) =     -6.28212  eV     1   --> A''            
     e( 10 - 10) =     -5.58737  eV     1   --> A'             
     e( 11 - 11) =     -4.85285  eV     1   --> A''            
     e( 12 - 12) =     -4.56775  eV     1   --> A'             
     e( 13 - 13) =     -2.06431  eV     1   --> A'             
     e( 14 - 14) =     -1.79817  eV     1   --> A''            
     e( 15 - 15) =     -1.40471  eV     1   --> A'             
     e( 16 - 16) =     -0.45286  eV     1   --> A'             
     e( 17 - 17) =     -0.15099  eV     1   --> A''            
     e( 18 - 18) =      3.30565  eV     1   --> A'             
     e( 19 - 19) =      3.60167  eV     1   --> A'             
     e( 20 - 20) =      4.09227  eV     1   --> A'             
     e( 21 - 21) =      4.90919  eV     1   --> A'             
     e( 22 - 22) =      5.15575  eV     1   --> A'             
     e( 23 - 23) =      5.39902  eV     1   --> A'             
     e( 24 - 24) =      6.30359  eV     1   --> A'             
     e( 25 - 25) =      7.05780  eV     1   --> A'             
     e( 26 - 26) =      7.52079  eV     1   --> A'             
     e( 27 - 27) =      7.91539  eV     1   --> A''            
     e( 28 - 28) =      8.61726  eV     1   --> A'             
     e( 29 - 29) =      9.33196  eV     1   --> A'             
     e( 30 - 30) =      9.70499  eV     1   --> A'             
     e( 31 - 31) =      9.93609  eV     1   --> A''            
     e( 32 - 32) =     10.33305  eV     1   --> A'             

 **************************************************************************

 **************************************************************************

                    xk=(   0.00000,   0.21277,   0.00000  )

     Band symmetry, C_s (m)     point group:

     e(  1 -  1) =    -87.74859  eV     1   --> A'             
     e(  2 -  2) =    -53.87079  eV     1   --> A'             
     e(  3 -  3) =    -53.86750  eV     1   --> A''            
     e(  4 -  4) =    -53.85158  eV     1   --> A'             
     e(  5 -  5) =    -18.70217  eV     1   --> A'             
     e(  6 -  6) =    -17.66407  eV     1   --> A'             
     e(  7 -  7) =     -7.57579  eV     1   --> A'             
     e(  8 -  8) =     -6.98956  eV     1   --> A'             
     e(  9 -  9) =     -6.27692  eV     1   --> A''            
     e( 10 - 10) =     -5.68502  eV     1   --> A'             
     e( 11 - 11) =     -4.89423  eV     1   --> A''            
     e( 12 - 12) =     -4.56326  eV     1   --> A'             
     e( 13 - 13) =     -2.06681  eV     1   --> A'             
     e( 14 - 14) =     -1.77297  eV     1   --> A''            
     e( 15 - 15) =     -1.39546  eV     1   --> A'             
     e( 16 - 16) =     -0.47234  eV     1   --> A'             
     e( 17 - 17) =     -0.16000  eV     1   --> A''            
     e( 18 - 18) =      3.37224  eV     1   --> A'             
     e( 19 - 19) =      3.65179  eV     1   --> A'             
     e( 20 - 20) =      4.15780  eV     1   --> A'             
     e( 21 - 21) =      4.94471  eV     1   --> A'             
     e( 22 - 22) =      5.21809  eV     1   --> A'             
     e( 23 - 23) =      5.46907  eV     1   --> A'             
     e( 24 - 24) =      6.32364  eV     1   --> A'             
     e( 25 - 25) =      7.09548  eV     1   --> A'             
     e( 26 - 26) =      7.56407  eV     1   --> A'             
     e( 27 - 27) =      7.99262  eV     1   --> A''            
     e( 28 - 28) =      8.57333  eV     1   --> A'             
     e( 29 - 29) =      9.25720  eV     1   --> A'             
     e( 30 - 30) =      9.72740  eV     1   --> A'             
     e( 31 - 31) =      9.95768  eV     1   --> A''            
     e( 32 - 32) =     10.26279  eV     1   --> A'             

 **************************************************************************

 **************************************************************************

                    xk=(   0.00000,   0.22459,   0.00000  )

     Band symmetry, C_s (m)     point group:

     e(  1 -  1) =    -87.74857  eV     1   --> A'             
     e(  2 -  2) =    -53.87120  eV     1   --> A'             
     e(  3 -  3) =    -53.86759  eV     1   --> A''            
     e(  4 -  4) =    -53.85151  eV     1   --> A'             
     e(  5 -  5) =    -18.67428  eV     1   --> A'             
     e(  6 -  6) =    -17.65731  eV     1   --> A'             
     e(  7 -  7) =     -7.55609  eV     1   --> A'             
     e(  8 -  8) =     -7.04152  eV     1   --> A'             
     e(  9 -  9) =     -6.27148  eV     1   --> A''            
     e( 10 - 10) =     -5.78026  eV     1   --> A'             
     e( 11 - 11) =     -4.93585  eV     1   --> A''            
     e( 12 - 12) =     -4.56260  eV     1   --> A'             
     e( 13 - 13) =     -2.07013  eV     1   --> A'             
     e( 14 - 14) =     -1.74886  eV     1   --> A''            
     e( 15 - 15) =     -1.38706  eV     1   --> A'             
     e( 16 - 16) =     -0.48775  eV     1   --> A'             
     e( 17 - 17) =     -0.16799  eV     1   --> A''            
     e( 18 - 18) =      3.44010  eV     1   --> A'             
     e( 19 - 19) =      3.70398  eV     1   --> A'             
     e( 20 - 20) =      4.22611  eV     1   --> A'             
     e( 21 - 21) =      4.96794  eV     1   --> A'             
     e( 22 - 22) =      5.27950  eV     1   --> A'             
     e( 23 - 23) =      5.53943  eV     1   --> A'             
     e( 24 - 24) =      6.35842  eV     1   --> A'             
     e( 25 - 25) =      7.13116  eV     1   --> A'             
     e( 26 - 26) =      7.61225  eV     1   --> A'             
     e( 27 - 27) =      8.06780  eV     1   --> A''            
     e( 28 - 28) =      8.54037  eV     1   --> A'             
     e( 29 - 29) =      9.17412  eV     1   --> A'             
     e( 30 - 30) =      9.76349  eV     1   --> A'             
     e( 31 - 31) =      9.98101  eV     1   --> A''            
     e( 32 - 32) =     10.19304  eV     1   --> A'             

 **************************************************************************

 **************************************************************************

                    xk=(   0.00000,   0.23642,   0.00000  )

     Band symmetry, C_s (m)     point group:

     e(  1 -  1) =    -87.74854  eV     1   --> A'             
     e(  2 -  2) =    -53.87165  eV     1   --> A'             
     e(  3 -  3) =    -53.86770  eV     1   --> A''            
     e(  4 -  4) =    -53.85144  eV     1   --> A'             
     e(  5 -  5) =    -18.64533  eV     1   --> A'             
     e(  6 -  6) =    -17.65048  eV     1   --> A'             
     e(  7 -  7) =     -7.53787  eV     1   --> A'             
     e(  8 -  8) =     -7.09339  eV     1   --> A'             
     e(  9 -  9) =     -6.26583  eV     1   --> A''            
     e( 10 - 10) =     -5.87214  eV     1   --> A'             
     e( 11 - 11) =     -4.97757  eV     1   --> A''            
     e( 12 - 12) =     -4.56588  eV     1   --> A'             
     e( 13 - 13) =     -2.07419  eV     1   --> A'             
     e( 14 - 14) =     -1.72607  eV     1   --> A''            
     e( 15 - 15) =     -1.37970  eV     1   --> A'             
     e( 16 - 16) =     -0.49892  eV     1   --> A'             
     e( 17 - 17) =     -0.17487  eV     1   --> A''            
     e( 18 - 18) =      3.50876  eV     1   --> A'             
     e( 19 - 19) =      3.75820  eV     1   --> A'             
     e( 20 - 20) =      4.29706  eV     1   --> A'             
     e( 21 - 21) =      4.97985  eV     1   --> A'             
     e( 22 - 22) =      5.33943  eV     1   --> A'             
     e( 23 - 23) =      5.60912  eV     1   --> A'             
     e( 24 - 24) =      6.40699  eV     1   --> A'             
     e( 25 - 25) =      7.16404  eV     1   --> A'             
     e( 26 - 26) =      7.66551  eV     1   --> A'             
     e( 27 - 27) =      8.13952  eV     1   --> A''            
     e( 28 - 28) =      8.51989  eV     1   --> A'             
     e( 29 - 29) =      9.09066  eV     1   --> A'             
     e( 30 - 30) =      9.80220  eV     1   --> A'             
     e( 31 - 31) =     10.00723  eV     1   --> A''            
     e( 32 - 32) =     10.12926  eV     1   --> A'             

 **************************************************************************

 **************************************************************************

                    xk=(   0.00000,   0.24824,   0.00000  )

     Band symmetry, C_s (m)     point group:

     e(  1 -  1) =    -87.74852  eV     1   --> A'             
     e(  2 -  2) =    -53.87211  eV     1   --> A'             
     e(  3 -  3) =    -53.86782  eV     1   --> A''            
     e(  4 -  4) =    -53.85137  eV     1   --> A'             
     e(  5 -  5) =    -18.61539  eV     1   --> A'             
     e(  6 -  6) =    -17.64364  eV     1   --> A'             
     e(  7 -  7) =     -7.52198  eV     1   --> A'             
     e(  8 -  8) =     -7.14485  eV     1   --> A'             
     e(  9 -  9) =     -6.25998  eV     1   --> A''            
     e( 10 - 10) =     -5.95962  eV     1   --> A'             
     e( 11 - 11) =     -5.01923  eV     1   --> A''            
     e( 12 - 12) =     -4.57316  eV     1   --> A'             
     e( 13 - 13) =     -2.07890  eV     1   --> A'             
     e( 14 - 14) =     -1.70476  eV     1   --> A''            
     e( 15 - 15) =     -1.37344  eV     1   --> A'             
     e( 16 - 16) =     -0.50572  eV     1   --> A'             
     e( 17 - 17) =     -0.18058  eV     1   --> A''            
     e( 18 - 18) =      3.57754  eV     1   --> A'             
     e( 19 - 19) =      3.81450  eV     1   --> A'             
     e( 20 - 20) =      4.37045  eV     1   --> A'             
     e( 21 - 21) =      4.98204  eV     1   --> A'             
     e( 22 - 22) =      5.39842  eV     1   --> A'             
     e( 23 - 23) =      5.67665  eV     1   --> A'             
     e( 24 - 24) =      6.46682  eV     1   --> A'             
     e( 25 - 25) =      7.19455  eV     1   --> A'             
     e( 26 - 26) =      7.72330  eV     1   --> A'             
     e( 27 - 27) =      8.20630  eV     1   --> A''            
     e( 28 - 28) =      8.51322  eV     1   --> A'             
     e( 29 - 29) =      9.01070  eV     1   --> A'             
     e( 30 - 30) =      9.83022  eV     1   --> A'             
     e( 31 - 31) =     10.03778  eV     1   --> A''            
     e( 32 - 32) =     10.08302  eV     1   --> A'             

 **************************************************************************

 **************************************************************************

                    xk=(   0.00000,   0.26006,   0.00000  )

     Band symmetry, C_s (m)     point group:

     e(  1 -  1) =    -87.74850  eV     1   --> A'             
     e(  2 -  2) =    -53.87258  eV     1   --> A'             
     e(  3 -  3) =    -53.86794  eV     1   --> A''            
     e(  4 -  4) =    -53.85130  eV     1   --> A'             
     e(  5 -  5) =    -18.58455  eV     1   --> A'             
     e(  6 -  6) =    -17.63683  eV     1   --> A'             
     e(  7 -  7) =     -7.50966  eV     1   --> A'             
     e(  8 -  8) =     -7.19534  eV     1   --> A'             
     e(  9 -  9) =     -6.25392  eV     1   --> A''            
     e( 10 - 10) =     -6.04163  eV     1   --> A'             
     e( 11 - 11) =     -5.06070  eV     1   --> A''            
     e( 12 - 12) =     -4.58444  eV     1   --> A'             
     e( 13 - 13) =     -2.08419  eV     1   --> A'             
     e( 14 - 14) =     -1.68502  eV     1   --> A''            
     e( 15 - 15) =     -1.36834  eV     1   --> A'             
     e( 16 - 16) =     -0.50813  eV     1   --> A'             
     e( 17 - 17) =     -0.18499  eV     1   --> A''            
     e( 18 - 18) =      3.64549  eV     1   --> A'             
     e( 19 - 19) =      3.87309  eV     1   --> A'             
     e( 20 - 20) =      4.44606  eV     1   --> A'             
     e( 21 - 21) =      4.97691  eV     1   --> A'             
     e( 22 - 22) =      5.45719  eV     1   --> A'             
     e( 23 - 23) =      5.74018  eV     1   --> A'             
     e( 24 - 24) =      6.53442  eV     1   --> A'             
     e( 25 - 25) =      7.22448  eV     1   --> A'             
     e( 26 - 26) =      7.78429  eV     1   --> A'             
     e( 27 - 27) =      8.26664  eV     1   --> A''            
     e( 28 - 28) =      8.52139  eV     1   --> A'             
     e( 29 - 29) =      8.93637  eV     1   --> A'             
     e( 30 - 30) =      9.82801  eV     1   --> A'             
     e( 31 - 31) =     10.07378  eV     1   --> A'             
     e( 32 - 32) =     10.07427  eV     1   --> A''            

 **************************************************************************

 **************************************************************************

                    xk=(   0.00000,   0.27188,   0.00000  )

     Band symmetry, C_s (m)     point group:

     e(  1 -  1) =    -87.74847  eV     1   --> A'             
     e(  2 -  2) =    -53.87306  eV     1   --> A'             
     e(  3 -  3) =    -53.86807  eV     1   --> A''            
     e(  4 -  4) =    -53.85123  eV     1   --> A'             
     e(  5 -  5) =    -18.55288  eV     1   --> A'             
     e(  6 -  6) =    -17.63011  eV     1   --> A'             
     e(  7 -  7) =     -7.50273  eV     1   --> A'             
     e(  8 -  8) =     -7.24378  eV     1   --> A'             
     e(  9 -  9) =     -6.24767  eV     1   --> A''            
     e( 10 - 10) =     -6.11705  eV     1   --> A'             
     e( 11 - 11) =     -5.10186  eV     1   --> A''            
     e( 12 - 12) =     -4.59964  eV     1   --> A'             
     e( 13 - 13) =     -2.08995  eV     1   --> A'             
     e( 14 - 14) =     -1.66693  eV     1   --> A''            
     e( 15 - 15) =     -1.36444  eV     1   --> A'             
     e( 16 - 16) =     -0.50619  eV     1   --> A'             
     e( 17 - 17) =     -0.18806  eV     1   --> A''            
     e( 18 - 18) =      3.71125  eV     1   --> A'             
     e( 19 - 19) =      3.93440  eV     1   --> A'             
     e( 20 - 20) =      4.52355  eV     1   --> A'             
     e( 21 - 21) =      4.96753  eV     1   --> A'             
     e( 22 - 22) =      5.51607  eV     1   --> A'             
     e( 23 - 23) =      5.79787  eV     1   --> A'             
     e( 24 - 24) =      6.60610  eV     1   --> A'             
     e( 25 - 25) =      7.25654  eV     1   --> A'             
     e( 26 - 26) =      7.84666  eV     1   --> A'             
     e( 27 - 27) =      8.31921  eV     1   --> A''            
     e( 28 - 28) =      8.54471  eV     1   --> A'             
     e( 29 - 29) =      8.86926  eV     1   --> A'             
     e( 30 - 30) =      9.79205  eV     1   --> A'             
     e( 31 - 31) =     10.10575  eV     1   --> A'             
     e( 32 - 32) =     10.11830  eV     1   --> A''            

 **************************************************************************

 **************************************************************************

                    xk=(   0.00000,   0.28370,   0.00000  )

     Band symmetry, C_s (m)     point group:

     e(  1 -  1) =    -87.74845  eV     1   --> A'             
     e(  2 -  2) =    -53.87351  eV     1   --> A'             
     e(  3 -  3) =    -53.86819  eV     1   --> A''            
     e(  4 -  4) =    -53.85117  eV     1   --> A'             
     e(  5 -  5) =    -18.52046  eV     1   --> A'             
     e(  6 -  6) =    -17.62352  eV     1   --> A'             
     e(  7 -  7) =     -7.50395  eV     1   --> A'             
     e(  8 -  8) =     -7.28813  eV     1   --> A'             
     e(  9 -  9) =     -6.24122  eV     1   --> A''            
     e( 10 - 10) =     -6.18474  eV     1   --> A'             
     e( 11 - 11) =     -5.14261  eV     1   --> A''            
     e( 12 - 12) =     -4.61867  eV     1   --> A'             
     e( 13 - 13) =     -2.09610  eV     1   --> A'             
     e( 14 - 14) =     -1.65054  eV     1   --> A''            
     e( 15 - 15) =     -1.36173  eV     1   --> A'             
     e( 16 - 16) =     -0.50002  eV     1   --> A'             
     e( 17 - 17) =     -0.18978  eV     1   --> A''            
     e( 18 - 18) =      3.77307  eV     1   --> A'             
     e( 19 - 19) =      3.99911  eV     1   --> A'             
     e( 20 - 20) =      4.60230  eV     1   --> A'             
     e( 21 - 21) =      4.95744  eV     1   --> A'             
     e( 22 - 22) =      5.57473  eV     1   --> A'             
     e( 23 - 23) =      5.84821  eV     1   --> A'             
     e( 24 - 24) =      6.67869  eV     1   --> A'             
     e( 25 - 25) =      7.29358  eV     1   --> A'             
     e( 26 - 26) =      7.90865  eV     1   --> A'             
     e( 27 - 27) =      8.36290  eV     1   --> A''            
     e( 28 - 28) =      8.58145  eV     1   --> A'             
     e( 29 - 29) =      8.81180  eV     1   --> A'             
     e( 30 - 30) =      9.74065  eV     1   --> A'             
     e( 31 - 31) =     10.16169  eV     1   --> A'             
     e( 32 - 32) =     10.17125  eV     1   --> A''            

 **************************************************************************

 **************************************************************************

                    xk=(   0.00000,   0.29552,   0.00000  )

     Band symmetry, C_s (m)     point group:

     e(  1 -  1) =    -87.74842  eV     1   --> A'             
     e(  2 -  2) =    -53.87397  eV     1   --> A'             
     e(  3 -  3) =    -53.86830  eV     1   --> A''            
     e(  4 -  4) =    -53.85108  eV     1   --> A'             
     e(  5 -  5) =    -18.48739  eV     1   --> A'             
     e(  6 -  6) =    -17.61712  eV     1   --> A'             
     e(  7 -  7) =     -7.51702  eV     1   --> A'             
     e(  8 -  8) =     -7.32546  eV     1   --> A'             
     e(  9 -  9) =     -6.24368  eV     1   --> A'             
     e( 10 - 10) =     -6.23458  eV     1   --> A''            
     e( 11 - 11) =     -5.18284  eV     1   --> A''            
     e( 12 - 12) =     -4.64134  eV     1   --> A'             
     e( 13 - 13) =     -2.10253  eV     1   --> A'             
     e( 14 - 14) =     -1.63585  eV     1   --> A''            
     e( 15 - 15) =     -1.36022  eV     1   --> A'             
     e( 16 - 16) =     -0.48982  eV     1   --> A'             
     e( 17 - 17) =     -0.19012  eV     1   --> A''            
     e( 18 - 18) =      3.82891  eV     1   --> A'             
     e( 19 - 19) =      4.06801  eV     1   --> A'             
     e( 20 - 20) =      4.68114  eV     1   --> A'             
     e( 21 - 21) =      4.95065  eV     1   --> A'             
     e( 22 - 22) =      5.63196  eV     1   --> A'             
     e( 23 - 23) =      5.89069  eV     1   --> A'             
     e( 24 - 24) =      6.75016  eV     1   --> A'             
     e( 25 - 25) =      7.33756  eV     1   --> A'             
     e( 26 - 26) =      7.96929  eV     1   --> A'             
     e( 27 - 27) =      8.39706  eV     1   --> A''            
     e( 28 - 28) =      8.62177  eV     1   --> A'             
     e( 29 - 29) =      8.77315  eV     1   --> A'             
     e( 30 - 30) =      9.68732  eV     1   --> A'             
     e( 31 - 31) =     10.22940  eV     1   --> A'             
     e( 32 - 32) =     10.23412  eV     1   --> A''            

 **************************************************************************

 **************************************************************************

                    xk=(   0.00000,   0.30734,   0.00000  )

     Band symmetry, C_s (m)     point group:

     e(  1 -  1) =    -87.74839  eV     1   --> A'             
     e(  2 -  2) =    -53.87447  eV     1   --> A'             
     e(  3 -  3) =    -53.86842  eV     1   --> A''            
     e(  4 -  4) =    -53.85103  eV     1   --> A'             
     e(  5 -  5) =    -18.45375  eV     1   --> A'             
     e(  6 -  6) =    -17.61097  eV     1   --> A'             
     e(  7 -  7) =     -7.54477  eV     1   --> A'             
     e(  8 -  8) =     -7.35354  eV     1   --> A'             
     e(  9 -  9) =     -6.29297  eV     1   --> A'             
     e( 10 - 10) =     -6.22777  eV     1   --> A''            
     e( 11 - 11) =     -5.22247  eV     1   --> A''            
     e( 12 - 12) =     -4.66745  eV     1   --> A'             
     e( 13 - 13) =     -2.10925  eV     1   --> A'             
     e( 14 - 14) =     -1.62290  eV     1   --> A''            
     e( 15 - 15) =     -1.35992  eV     1   --> A'             
     e( 16 - 16) =     -0.47592  eV     1   --> A'             
     e( 17 - 17) =     -0.18916  eV     1   --> A''            
     e( 18 - 18) =      3.87689  eV     1   --> A'             
     e( 19 - 19) =      4.14170  eV     1   --> A'             
     e( 20 - 20) =      4.75731  eV     1   --> A'             
     e( 21 - 21) =      4.95240  eV     1   --> A'             
     e( 22 - 22) =      5.68521  eV     1   --> A'             
     e( 23 - 23) =      5.92671  eV     1   --> A'             
     e( 24 - 24) =      6.81985  eV     1   --> A'             
     e( 25 - 25) =      7.38869  eV     1   --> A'             
     e( 26 - 26) =      8.02886  eV     1   --> A'             
     e( 27 - 27) =      8.42151  eV     1   --> A''            
     e( 28 - 28) =      8.63161  eV     1   --> A'             
     e( 29 - 29) =      8.78518  eV     1   --> A'             
     e( 30 - 30) =      9.63852  eV     1   --> A'             
     e( 31 - 31) =     10.30375  eV     1   --> A'             
     e( 32 - 32) =     10.30739  eV     1   --> A''            

 **************************************************************************

 **************************************************************************

                    xk=(   0.00000,   0.31916,   0.00000  )

     Band symmetry, C_s (m)     point group:

     e(  1 -  1) =    -87.74837  eV     1   --> A'             
     e(  2 -  2) =    -53.87492  eV     1   --> A'             
     e(  3 -  3) =    -53.86854  eV     1   --> A''            
     e(  4 -  4) =    -53.85095  eV     1   --> A'             
     e(  5 -  5) =    -18.41965  eV     1   --> A'             
     e(  6 -  6) =    -17.60512  eV     1   --> A'             
     e(  7 -  7) =     -7.58626  eV     1   --> A'             
     e(  8 -  8) =     -7.37361  eV     1   --> A'             
     e(  9 -  9) =     -6.33203  eV     1   --> A'             
     e( 10 - 10) =     -6.22079  eV     1   --> A''            
     e( 11 - 11) =     -5.26141  eV     1   --> A''            
     e( 12 - 12) =     -4.69675  eV     1   --> A'             
     e( 13 - 13) =     -2.11612  eV     1   --> A'             
     e( 14 - 14) =     -1.61162  eV     1   --> A''            
     e( 15 - 15) =     -1.36070  eV     1   --> A'             
     e( 16 - 16) =     -0.45856  eV     1   --> A'             
     e( 17 - 17) =     -0.18695  eV     1   --> A''            
     e( 18 - 18) =      3.91561  eV     1   --> A'             
     e( 19 - 19) =      4.22033  eV     1   --> A'             
     e( 20 - 20) =      4.82429  eV     1   --> A'             
     e( 21 - 21) =      4.97112  eV     1   --> A'             
     e( 22 - 22) =      5.73011  eV     1   --> A'             
     e( 23 - 23) =      5.96056  eV     1   --> A'             
     e( 24 - 24) =      6.88818  eV     1   --> A'             
     e( 25 - 25) =      7.44542  eV     1   --> A'             
     e( 26 - 26) =      8.08884  eV     1   --> A'             
     e( 27 - 27) =      8.43655  eV     1   --> A''            
     e( 28 - 28) =      8.60084  eV     1   --> A'             
     e( 29 - 29) =      8.85454  eV     1   --> A'             
     e( 30 - 30) =      9.59787  eV     1   --> A'             
     e( 31 - 31) =     10.38230  eV     1   --> A'             
     e( 32 - 32) =     10.39099  eV     1   --> A''            

 **************************************************************************

 **************************************************************************

                    xk=(   0.00000,   0.33098,   0.00000  )

     Band symmetry, C_s (m)     point group:

     e(  1 -  1) =    -87.74834  eV     1   --> A'             
     e(  2 -  2) =    -53.87539  eV     1   --> A'             
     e(  3 -  3) =    -53.86867  eV     1   --> A''            
     e(  4 -  4) =    -53.85089  eV     1   --> A'             
     e(  5 -  5) =    -18.38517  eV     1   --> A'             
     e(  6 -  6) =    -17.59963  eV     1   --> A'             
     e(  7 -  7) =     -7.63771  eV     1   --> A'             
     e(  8 -  8) =     -7.38949  eV     1   --> A'             
     e(  9 -  9) =     -6.36060  eV     1   --> A'             
     e( 10 - 10) =     -6.21363  eV     1   --> A''            
     e( 11 - 11) =     -5.29958  eV     1   --> A''            
     e( 12 - 12) =     -4.72898  eV     1   --> A'             
     e( 13 - 13) =     -2.12309  eV     1   --> A'             
     e( 14 - 14) =     -1.60199  eV     1   --> A''            
     e( 15 - 15) =     -1.36259  eV     1   --> A'             
     e( 16 - 16) =     -0.43811  eV     1   --> A'             
     e( 17 - 17) =     -0.18358  eV     1   --> A''            
     e( 18 - 18) =      3.94444  eV     1   --> A'             
     e( 19 - 19) =      4.30361  eV     1   --> A'             
     e( 20 - 20) =      4.87309  eV     1   --> A'             
     e( 21 - 21) =      5.01678  eV     1   --> A'             
     e( 22 - 22) =      5.76121  eV     1   --> A'             
     e( 23 - 23) =      5.99896  eV     1   --> A'             
     e( 24 - 24) =      6.95583  eV     1   --> A'             
     e( 25 - 25) =      7.50523  eV     1   --> A'             
     e( 26 - 26) =      8.15124  eV     1   --> A'             
     e( 27 - 27) =      8.44289  eV     1   --> A''            
     e( 28 - 28) =      8.55688  eV     1   --> A'             
     e( 29 - 29) =      8.94970  eV     1   --> A'             
     e( 30 - 30) =      9.56767  eV     1   --> A'             
     e( 31 - 31) =     10.46343  eV     1   --> A'             
     e( 32 - 32) =     10.48435  eV     1   --> A''            

 **************************************************************************

 **************************************************************************

                    xk=(   0.00000,   0.34280,   0.00000  )

     Band symmetry, C_s (m)     point group:

     e(  1 -  1) =    -87.74832  eV     1   --> A'             
     e(  2 -  2) =    -53.87583  eV     1   --> A'             
     e(  3 -  3) =    -53.86880  eV     1   --> A''            
     e(  4 -  4) =    -53.85082  eV     1   --> A'             
     e(  5 -  5) =    -18.35042  eV     1   --> A'             
     e(  6 -  6) =    -17.59456  eV     1   --> A'             
     e(  7 -  7) =     -7.69551  eV     1   --> A'             
     e(  8 -  8) =     -7.40435  eV     1   --> A'             
     e(  9 -  9) =     -6.37890  eV     1   --> A'             
     e( 10 - 10) =     -6.20631  eV     1   --> A''            
     e( 11 - 11) =     -5.33693  eV     1   --> A''            
     e( 12 - 12) =     -4.76384  eV     1   --> A'             
     e( 13 - 13) =     -2.13013  eV     1   --> A'             
     e( 14 - 14) =     -1.59388  eV     1   --> A''            
     e( 15 - 15) =     -1.36548  eV     1   --> A'             
     e( 16 - 16) =     -0.41496  eV     1   --> A'             
     e( 17 - 17) =     -0.17914  eV     1   --> A''            
     e( 18 - 18) =      3.96355  eV     1   --> A'             
     e( 19 - 19) =      4.39092  eV     1   --> A'             
     e( 20 - 20) =      4.90714  eV     1   --> A'             
     e( 21 - 21) =      5.08575  eV     1   --> A'             
     e( 22 - 22) =      5.77590  eV     1   --> A'             
     e( 23 - 23) =      6.04707  eV     1   --> A'             
     e( 24 - 24) =      7.02302  eV     1   --> A'             
     e( 25 - 25) =      7.56589  eV     1   --> A'             
     e( 26 - 26) =      8.21757  eV     1   --> A'             
     e( 27 - 27) =      8.44155  eV     1   --> A''            
     e( 28 - 28) =      8.50885  eV     1   --> A'             
     e( 29 - 29) =      9.05764  eV     1   --> A'             
     e( 30 - 30) =      9.54932  eV     1   --> A'             
     e( 31 - 31) =     10.54551  eV     1   --> A'             
     e( 32 - 32) =     10.58655  eV     1   --> A''            

 **************************************************************************

 **************************************************************************

                    xk=(   0.00000,   0.35462,   0.00000  )

     Band symmetry, C_s (m)     point group:

     e(  1 -  1) =    -87.74829  eV     1   --> A'             
     e(  2 -  2) =    -53.87628  eV     1   --> A'             
     e(  3 -  3) =    -53.86890  eV     1   --> A''            
     e(  4 -  4) =    -53.85075  eV     1   --> A'             
     e(  5 -  5) =    -18.31551  eV     1   --> A'             
     e(  6 -  6) =    -17.58996  eV     1   --> A'             
     e(  7 -  7) =     -7.75727  eV     1   --> A'             
     e(  8 -  8) =     -7.41985  eV     1   --> A'             
     e(  9 -  9) =     -6.38750  eV     1   --> A'             
     e( 10 - 10) =     -6.19881  eV     1   --> A''            
     e( 11 - 11) =     -5.37338  eV     1   --> A''            
     e( 12 - 12) =     -4.80104  eV     1   --> A'             
     e( 13 - 13) =     -2.13718  eV     1   --> A'             
     e( 14 - 14) =     -1.58715  eV     1   --> A''            
     e( 15 - 15) =     -1.36934  eV     1   --> A'             
     e( 16 - 16) =     -0.38951  eV     1   --> A'             
     e( 17 - 17) =     -0.17372  eV     1   --> A''            
     e( 18 - 18) =      3.97378  eV     1   --> A'             
     e( 19 - 19) =      4.48154  eV     1   --> A'             
     e( 20 - 20) =      4.93761  eV     1   --> A'             
     e( 21 - 21) =      5.16509  eV     1   --> A'             
     e( 22 - 22) =      5.77784  eV     1   --> A'             
     e( 23 - 23) =      6.10514  eV     1   --> A'             
     e( 24 - 24) =      7.08917  eV     1   --> A'             
     e( 25 - 25) =      7.62644  eV     1   --> A'             
     e( 26 - 26) =      8.28729  eV     1   --> A'             
     e( 27 - 27) =      8.43366  eV     1   --> A''            
     e( 28 - 28) =      8.45963  eV     1   --> A'             
     e( 29 - 29) =      9.17306  eV     1   --> A'             
     e( 30 - 30) =      9.54336  eV     1   --> A'             
     e( 31 - 31) =     10.62632  eV     1   --> A'             
     e( 32 - 32) =     10.69641  eV     1   --> A''            

 **************************************************************************

 **************************************************************************

                    xk=(   0.00000,   0.36644,   0.00000  )

     Band symmetry, C_s (m)     point group:

     e(  1 -  1) =    -87.74827  eV     1   --> A'             
     e(  2 -  2) =    -53.87676  eV     1   --> A'             
     e(  3 -  3) =    -53.86901  eV     1   --> A''            
     e(  4 -  4) =    -53.85069  eV     1   --> A'             
     e(  5 -  5) =    -18.28054  eV     1   --> A'             
     e(  6 -  6) =    -17.58589  eV     1   --> A'             
     e(  7 -  7) =     -7.82140  eV     1   --> A'             
     e(  8 -  8) =     -7.43651  eV     1   --> A'             
     e(  9 -  9) =     -6.38727  eV     1   --> A'             
     e( 10 - 10) =     -6.19115  eV     1   --> A''            
     e( 11 - 11) =     -5.40888  eV     1   --> A''            
     e( 12 - 12) =     -4.84027  eV     1   --> A'             
     e( 13 - 13) =     -2.14421  eV     1   --> A'             
     e( 14 - 14) =     -1.58178  eV     1   --> A''            
     e( 15 - 15) =     -1.37412  eV     1   --> A'             
     e( 16 - 16) =     -0.36218  eV     1   --> A'             
     e( 17 - 17) =     -0.16749  eV     1   --> A''            
     e( 18 - 18) =      3.97649  eV     1   --> A'             
     e( 19 - 19) =      4.57460  eV     1   --> A'             
     e( 20 - 20) =      4.96921  eV     1   --> A'             
     e( 21 - 21) =      5.24650  eV     1   --> A'             
     e( 22 - 22) =      5.77490  eV     1   --> A'             
     e( 23 - 23) =      6.17055  eV     1   --> A'             
     e( 24 - 24) =      7.15297  eV     1   --> A'             
     e( 25 - 25) =      7.68750  eV     1   --> A'             
     e( 26 - 26) =      8.34867  eV     1   --> A'             
     e( 27 - 27) =      8.42041  eV     1   --> A''            
     e( 28 - 28) =      8.42087  eV     1   --> A'             
     e( 29 - 29) =      9.29243  eV     1   --> A'             
     e( 30 - 30) =      9.54955  eV     1   --> A'             
     e( 31 - 31) =     10.70228  eV     1   --> A'             
     e( 32 - 32) =     10.81259  eV     1   --> A''            

 **************************************************************************

 **************************************************************************

                    xk=(   0.00000,   0.37827,   0.00000  )

     Band symmetry, C_s (m)     point group:

     e(  1 -  1) =    -87.74824  eV     1   --> A'             
     e(  2 -  2) =    -53.87717  eV     1   --> A'             
     e(  3 -  3) =    -53.86914  eV     1   --> A''            
     e(  4 -  4) =    -53.85062  eV     1   --> A'             
     e(  5 -  5) =    -18.24562  eV     1   --> A'             
     e(  6 -  6) =    -17.58242  eV     1   --> A'             
     e(  7 -  7) =     -7.88677  eV     1   --> A'             
     e(  8 -  8) =     -7.45425  eV     1   --> A'             
     e(  9 -  9) =     -6.37928  eV     1   --> A'             
     e( 10 - 10) =     -6.18332  eV     1   --> A''            
     e( 11 - 11) =     -5.44338  eV     1   --> A''            
     e( 12 - 12) =     -4.88123  eV     1   --> A'             
     e( 13 - 13) =     -2.15116  eV     1   --> A'             
     e( 14 - 14) =     -1.57757  eV     1   --> A''            
     e( 15 - 15) =     -1.37965  eV     1   --> A'             
     e( 16 - 16) =     -0.33334  eV     1   --> A'             
     e( 17 - 17) =     -0.16057  eV     1   --> A''            
     e( 18 - 18) =      3.97333  eV     1   --> A'             
     e( 19 - 19) =      4.66892  eV     1   --> A'             
     e( 20 - 20) =      5.00178  eV     1   --> A'             
     e( 21 - 21) =      5.32472  eV     1   --> A'             
     e( 22 - 22) =      5.77652  eV     1   --> A'             
     e( 23 - 23) =      6.24077  eV     1   --> A'             
     e( 24 - 24) =      7.21268  eV     1   --> A'             
     e( 25 - 25) =      7.75079  eV     1   --> A'             
     e( 26 - 26) =      8.33386  eV     1   --> A'             
     e( 27 - 27) =      8.40292  eV     1   --> A''            
     e( 28 - 28) =      8.45928  eV     1   --> A'             
     e( 29 - 29) =      9.41263  eV     1   --> A'             
     e( 30 - 30) =      9.56713  eV     1   --> A'             
     e( 31 - 31) =     10.76671  eV     1   --> A'             
     e( 32 - 32) =     10.93372  eV     1   --> A''            

 **************************************************************************

 **************************************************************************

                    xk=(   0.00000,   0.39009,   0.00000  )

     Band symmetry, C_s (m)     point group:

     e(  1 -  1) =    -87.74822  eV     1   --> A'             
     e(  2 -  2) =    -53.87759  eV     1   --> A'             
     e(  3 -  3) =    -53.86925  eV     1   --> A''            
     e(  4 -  4) =    -53.85056  eV     1   --> A'             
     e(  5 -  5) =    -18.21087  eV     1   --> A'             
     e(  6 -  6) =    -17.57960  eV     1   --> A'             
     e(  7 -  7) =     -7.95248  eV     1   --> A'             
     e(  8 -  8) =     -7.47275  eV     1   --> A'             
[...]
     e( 24 - 24) =      6.37453  eV     1   --> A              
     e( 25 - 25) =      6.91426  eV     1   --> A              
     e( 26 - 26) =      7.23546  eV     1   --> B              
     e( 27 - 27) =      7.41250  eV     1   --> B              
     e( 28 - 28) =      9.17252  eV     1   --> B              
     e( 29 - 29) =      9.24564  eV     1   --> A              
     e( 30 - 30) =      9.77970  eV     1   --> A              
     e( 31 - 31) =     10.36353  eV     1   --> A              
     e( 32 - 32) =     10.60123  eV     1   --> B              

 **************************************************************************

 **************************************************************************

                    xk=(  -0.04777,   0.08275,   0.00000  )

     Band symmetry, C_2  (2)    point group:

     e(  1 -  1) =    -87.74877  eV     1   --> A              
     e(  2 -  2) =    -53.86738  eV     1   --> A              
     e(  3 -  3) =    -53.86665  eV     1   --> B              
     e(  4 -  4) =    -53.85204  eV     1   --> B              
     e(  5 -  5) =    -18.90868  eV     1   --> A              
     e(  6 -  6) =    -17.71929  eV     1   --> B              
     e(  7 -  7) =     -7.76059  eV     1   --> A              
     e(  8 -  8) =     -6.50967  eV     1   --> B              
     e(  9 -  9) =     -6.31826  eV     1   --> A              
     e( 10 - 10) =     -4.74581  eV     1   --> A              
     e( 11 - 11) =     -4.73095  eV     1   --> B              
     e( 12 - 12) =     -4.53040  eV     1   --> B              
     e( 13 - 13) =     -2.07165  eV     1   --> B              
     e( 14 - 14) =     -2.05004  eV     1   --> A              
     e( 15 - 15) =     -1.50167  eV     1   --> A              
     e( 16 - 16) =     -0.16617  eV     1   --> B              
     e( 17 - 17) =     -0.05875  eV     1   --> A              
     e( 18 - 18) =      2.81493  eV     1   --> A              
     e( 19 - 19) =      3.26213  eV     1   --> B              
     e( 20 - 20) =      3.65121  eV     1   --> A              
     e( 21 - 21) =      4.22478  eV     1   --> B              
     e( 22 - 22) =      4.77358  eV     1   --> B              
     e( 23 - 23) =      4.86777  eV     1   --> A              
     e( 24 - 24) =      6.37400  eV     1   --> A              
     e( 25 - 25) =      6.93674  eV     1   --> A              
     e( 26 - 26) =      7.21925  eV     1   --> B              
     e( 27 - 27) =      7.34300  eV     1   --> B              
     e( 28 - 28) =      9.21433  eV     1   --> A              
     e( 29 - 29) =      9.26655  eV     1   --> B              
     e( 30 - 30) =      9.76155  eV     1   --> A              
     e( 31 - 31) =     10.47644  eV     1   --> A              
     e( 32 - 32) =     10.59734  eV     1   --> B              

 **************************************************************************

 **************************************************************************

                    xk=(  -0.04095,   0.07092,   0.00000  )

     Band symmetry, C_2  (2)    point group:

     e(  1 -  1) =    -87.74878  eV     1   --> A              
     e(  2 -  2) =    -53.86711  eV     1   --> A              
     e(  3 -  3) =    -53.86657  eV     1   --> B              
     e(  4 -  4) =    -53.85206  eV     1   --> B              
     e(  5 -  5) =    -18.92323  eV     1   --> A              
     e(  6 -  6) =    -17.72349  eV     1   --> B              
     e(  7 -  7) =     -7.77521  eV     1   --> A              
     e(  8 -  8) =     -6.46584  eV     1   --> B              
     e(  9 -  9) =     -6.32060  eV     1   --> A              
     e( 10 - 10) =     -4.75733  eV     1   --> B              
     e( 11 - 11) =     -4.66182  eV     1   --> A              
     e( 12 - 12) =     -4.49798  eV     1   --> B              
     e( 13 - 13) =     -2.08777  eV     1   --> B              
     e( 14 - 14) =     -2.06824  eV     1   --> A              
     e( 15 - 15) =     -1.51225  eV     1   --> A              
     e( 16 - 16) =     -0.13011  eV     1   --> B              
     e( 17 - 17) =     -0.04570  eV     1   --> A              
     e( 18 - 18) =      2.77054  eV     1   --> A              
     e( 19 - 19) =      3.23411  eV     1   --> B              
     e( 20 - 20) =      3.61533  eV     1   --> A              
     e( 21 - 21) =      4.13800  eV     1   --> B              
     e( 22 - 22) =      4.74648  eV     1   --> B              
     e( 23 - 23) =      4.82133  eV     1   --> A              
     e( 24 - 24) =      6.36769  eV     1   --> A              
     e( 25 - 25) =      6.96528  eV     1   --> A              
     e( 26 - 26) =      7.20168  eV     1   --> B              
     e( 27 - 27) =      7.28539  eV     1   --> B              
     e( 28 - 28) =      9.18632  eV     1   --> A              
     e( 29 - 29) =      9.35770  eV     1   --> B              
     e( 30 - 30) =      9.74445  eV     1   --> A              
     e( 31 - 31) =     10.58161  eV     1   --> A              
     e( 32 - 32) =     10.58175  eV     1   --> B              

 **************************************************************************

 **************************************************************************

                    xk=(  -0.03412,   0.05910,   0.00000  )

     Band symmetry, C_2  (2)    point group:

     e(  1 -  1) =    -87.74880  eV     1   --> A              
     e(  2 -  2) =    -53.86691  eV     1   --> A              
     e(  3 -  3) =    -53.86652  eV     1   --> B              
     e(  4 -  4) =    -53.85210  eV     1   --> B              
     e(  5 -  5) =    -18.93561  eV     1   --> A              
     e(  6 -  6) =    -17.72709  eV     1   --> B              
     e(  7 -  7) =     -7.78775  eV     1   --> A              
     e(  8 -  8) =     -6.42655  eV     1   --> B              
     e(  9 -  9) =     -6.32273  eV     1   --> A              
     e( 10 - 10) =     -4.78232  eV     1   --> B              
     e( 11 - 11) =     -4.58721  eV     1   --> A              
     e( 12 - 12) =     -4.46980  eV     1   --> B              
     e( 13 - 13) =     -2.10188  eV     1   --> B              
     e( 14 - 14) =     -2.08584  eV     1   --> A              
     e( 15 - 15) =     -1.52148  eV     1   --> A              
     e( 16 - 16) =     -0.09676  eV     1   --> B              
     e( 17 - 17) =     -0.03471  eV     1   --> A              
     e( 18 - 18) =      2.73210  eV     1   --> A              
     e( 19 - 19) =      3.21012  eV     1   --> B              
     e( 20 - 20) =      3.58481  eV     1   --> A              
     e( 21 - 21) =      4.06159  eV     1   --> B              
     e( 22 - 22) =      4.72353  eV     1   --> B              
     e( 23 - 23) =      4.78172  eV     1   --> A              
     e( 24 - 24) =      6.35848  eV     1   --> A              
     e( 25 - 25) =      6.99585  eV     1   --> A              
     e( 26 - 26) =      7.17983  eV     1   --> B              
     e( 27 - 27) =      7.24302  eV     1   --> B              
     e( 28 - 28) =      9.16199  eV     1   --> A              
     e( 29 - 29) =      9.44400  eV     1   --> B              
     e( 30 - 30) =      9.72916  eV     1   --> A              
     e( 31 - 31) =     10.55816  eV     1   --> B              
     e( 32 - 32) =     10.67603  eV     1   --> A              

 **************************************************************************

 **************************************************************************

                    xk=(  -0.02730,   0.04728,   0.00000  )

     Band symmetry, C_2  (2)    point group:

     e(  1 -  1) =    -87.74880  eV     1   --> A              
     e(  2 -  2) =    -53.86671  eV     1   --> A              
     e(  3 -  3) =    -53.86646  eV     1   --> B              
     e(  4 -  4) =    -53.85210  eV     1   --> B              
     e(  5 -  5) =    -18.94579  eV     1   --> A              
     e(  6 -  6) =    -17.73008  eV     1   --> B              
     e(  7 -  7) =     -7.79813  eV     1   --> A              
     e(  8 -  8) =     -6.39268  eV     1   --> B              
     e(  9 -  9) =     -6.32455  eV     1   --> A              
     e( 10 - 10) =     -4.80475  eV     1   --> B              
     e( 11 - 11) =     -4.52347  eV     1   --> A              
     e( 12 - 12) =     -4.44625  eV     1   --> B              
     e( 13 - 13) =     -2.11369  eV     1   --> B              
     e( 14 - 14) =     -2.10197  eV     1   --> A              
     e( 15 - 15) =     -1.52916  eV     1   --> A              
     e( 16 - 16) =     -0.06734  eV     1   --> B              
     e( 17 - 17) =     -0.02570  eV     1   --> A              
     e( 18 - 18) =      2.70001  eV     1   --> A              
     e( 19 - 19) =      3.19026  eV     1   --> B              
     e( 20 - 20) =      3.55974  eV     1   --> A              
     e( 21 - 21) =      3.99690  eV     1   --> B              
     e( 22 - 22) =      4.70474  eV     1   --> B              
     e( 23 - 23) =      4.74913  eV     1   --> A              
     e( 24 - 24) =      6.34859  eV     1   --> A              
     e( 25 - 25) =      7.02509  eV     1   --> A              
     e( 26 - 26) =      7.15243  eV     1   --> B              
     e( 27 - 27) =      7.21749  eV     1   --> B              
     e( 28 - 28) =      9.14165  eV     1   --> A              
     e( 29 - 29) =      9.52295  eV     1   --> B              
     e( 30 - 30) =      9.71617  eV     1   --> A              
     e( 31 - 31) =     10.53024  eV     1   --> B              
     e( 32 - 32) =     10.75701  eV     1   --> A              

 **************************************************************************

 **************************************************************************

                    xk=(  -0.02047,   0.03546,   0.00000  )

     Band symmetry, C_2  (2)    point group:

     e(  1 -  1) =    -87.74881  eV     1   --> A              
     e(  2 -  2) =    -53.86659  eV     1   --> A              
     e(  3 -  3) =    -53.86644  eV     1   --> B              
     e(  4 -  4) =    -53.85211  eV     1   --> B              
     e(  5 -  5) =    -18.95373  eV     1   --> A              
     e(  6 -  6) =    -17.73242  eV     1   --> B              
     e(  7 -  7) =     -7.80626  eV     1   --> A              
     e(  8 -  8) =     -6.36515  eV     1   --> B              
     e(  9 -  9) =     -6.32604  eV     1   --> A              
     e( 10 - 10) =     -4.82356  eV     1   --> B              
     e( 11 - 11) =     -4.47205  eV     1   --> A              
     e( 12 - 12) =     -4.42765  eV     1   --> B              
     e( 13 - 13) =     -2.12310  eV     1   --> B              
     e( 14 - 14) =     -2.11579  eV     1   --> A              
     e( 15 - 15) =     -1.53525  eV     1   --> A              
     e( 16 - 16) =     -0.04306  eV     1   --> B              
     e( 17 - 17) =     -0.01875  eV     1   --> A              
     e( 18 - 18) =      2.67465  eV     1   --> A              
     e( 19 - 19) =      3.17466  eV     1   --> B              
     e( 20 - 20) =      3.54018  eV     1   --> A              
     e( 21 - 21) =      3.94516  eV     1   --> B              
     e( 22 - 22) =      4.69010  eV     1   --> B              
     e( 23 - 23) =      4.72367  eV     1   --> A              
     e( 24 - 24) =      6.33961  eV     1   --> A              
     e( 25 - 25) =      7.05038  eV     1   --> A              
     e( 26 - 26) =      7.12525  eV     1   --> B              
     e( 27 - 27) =      7.20328  eV     1   --> B              
     e( 28 - 28) =      9.12555  eV     1   --> A              
     e( 29 - 29) =      9.59132  eV     1   --> B              
     e( 30 - 30) =      9.70580  eV     1   --> A              
     e( 31 - 31) =     10.50168  eV     1   --> B              
     e( 32 - 32) =     10.82224  eV     1   --> A              

 **************************************************************************

 **************************************************************************

                    xk=(  -0.01365,   0.02364,   0.00000  )

     Band symmetry, C_2  (2)    point group:

     e(  1 -  1) =    -87.74881  eV     1   --> A              
     e(  2 -  3) =    -53.86648  eV     2   --> A              
     e(  2 -  3) =    -53.86648  eV     2   --> B              
     e(  4 -  4) =    -53.85213  eV     1   --> B              
     e(  5 -  5) =    -18.95942  eV     1   --> A              
     e(  6 -  6) =    -17.73410  eV     1   --> B              
     e(  7 -  7) =     -7.81211  eV     1   --> A              
     e(  8 -  8) =     -6.34478  eV     1   --> B              
     e(  9 -  9) =     -6.32713  eV     1   --> A              
     e( 10 - 10) =     -4.83778  eV     1   --> B              
     e( 11 - 11) =     -4.43426  eV     1   --> A              
     e( 12 - 12) =     -4.41420  eV     1   --> B              
     e( 13 - 13) =     -2.12992  eV     1   --> B              
     e( 14 - 14) =     -2.12639  eV     1   --> A              
     e( 15 - 15) =     -1.53966  eV     1   --> A              
     e( 16 - 16) =     -0.02490  eV     1   --> B              
     e( 17 - 17) =     -0.01377  eV     1   --> A              
     e( 18 - 18) =      2.65631  eV     1   --> A              
     e( 19 - 19) =      3.16342  eV     1   --> B              
     e( 20 - 20) =      3.52618  eV     1   --> A              
     e( 21 - 21) =      3.90741  eV     1   --> B              
     e( 22 - 22) =      4.67963  eV     1   --> B              
     e( 23 - 23) =      4.70544  eV     1   --> A              
     e( 24 - 24) =      6.33258  eV     1   --> A              
     e( 25 - 25) =      7.06976  eV     1   --> A              
     e( 26 - 26) =      7.10388  eV     1   --> B              
     e( 27 - 27) =      7.19496  eV     1   --> B              
     e( 28 - 28) =      9.11388  eV     1   --> A              
     e( 29 - 29) =      9.64515  eV     1   --> B              
     e( 30 - 30) =      9.69828  eV     1   --> A              
     e( 31 - 31) =     10.47649  eV     1   --> B              
     e( 32 - 32) =     10.86998  eV     1   --> A              

 **************************************************************************

 **************************************************************************

                    xk=(  -0.00682,   0.01182,   0.00000  )

     Band symmetry, C_2  (2)    point group:

     e(  1 -  1) =    -87.74881  eV     1   --> A              
     e(  2 -  3) =    -53.86641  eV     2   --> A              
     e(  2 -  3) =    -53.86641  eV     2   --> B              
     e(  4 -  4) =    -53.85211  eV     1   --> B              
     e(  5 -  5) =    -18.96284  eV     1   --> A              
     e(  6 -  6) =    -17.73511  eV     1   --> B              
     e(  7 -  7) =     -7.81564  eV     1   --> A              
     e(  8 -  8) =     -6.33225  eV     1   --> B              
     e(  9 -  9) =     -6.32779  eV     1   --> A              
     e( 10 - 10) =     -4.84664  eV     1   --> B              
     e( 11 - 11) =     -4.41113  eV     1   --> A              
     e( 12 - 12) =     -4.40606  eV     1   --> B              
     e( 13 - 13) =     -2.13402  eV     1   --> B              
     e( 14 - 14) =     -2.13305  eV     1   --> A              
     e( 15 - 15) =     -1.54231  eV     1   --> A              
     e( 16 - 16) =     -0.01363  eV     1   --> B              
     e( 17 - 17) =     -0.01078  eV     1   --> A              
     e( 18 - 18) =      2.64521  eV     1   --> A              
     e( 19 - 19) =      3.15662  eV     1   --> B              
     e( 20 - 20) =      3.51776  eV     1   --> A              
     e( 21 - 21) =      3.88443  eV     1   --> B              
     e( 22 - 22) =      4.67335  eV     1   --> B              
     e( 23 - 23) =      4.69448  eV     1   --> A              
     e( 24 - 24) =      6.32813  eV     1   --> A              
     e( 25 - 25) =      7.08192  eV     1   --> A              
     e( 26 - 26) =      7.09056  eV     1   --> B              
     e( 27 - 27) =      7.19042  eV     1   --> B              
     e( 28 - 28) =      9.10682  eV     1   --> A              
     e( 29 - 29) =      9.68004  eV     1   --> B              
     e( 30 - 30) =      9.69372  eV     1   --> A              
     e( 31 - 31) =     10.45893  eV     1   --> B              
     e( 32 - 32) =     10.89905  eV     1   --> A              

 **************************************************************************

 **************************************************************************

                    xk=(   0.00000,   0.00000,   0.00000  )

     point group D_3d (-3m) 
     there are  6 classes
     the character table:

       E     2C3   3C2'  i     2S6   3s_d 
A_1g   1.00  1.00  1.00  1.00  1.00  1.00
A_2g   1.00  1.00 -1.00  1.00  1.00 -1.00
E_g    2.00 -1.00  0.00  2.00 -1.00  0.00
A_1u   1.00  1.00  1.00 -1.00 -1.00 -1.00
A_2u   1.00  1.00 -1.00 -1.00 -1.00  1.00
E_u    2.00 -1.00  0.00 -2.00  1.00  0.00

     the symmetry operations in each class and the name of the first element:

     E        1
                                                                 
     2C3      3    4
                                                                 
     3C2'     2    5    6
                                                                 
     i        7
                                                                 
     2S6      9   10
                                                                 
     3s_d     8   11   12
                                                                 

     Band symmetry, D_3d (-3m)  point group:

     e(  1 -  1) =    -87.74880  eV     1   --> A_1g L_1       
     e(  2 -  3) =    -53.86631  eV     2   --> E_u  L_3'      
     e(  4 -  4) =    -53.85208  eV     1   --> A_2u L_2'      
     e(  5 -  5) =    -18.96398  eV     1   --> A_1g L_1       
     e(  6 -  6) =    -17.73545  eV     1   --> A_2u L_2'      
     e(  7 -  7) =     -7.81681  eV     1   --> A_1g L_1       
     e(  8 -  9) =     -6.32800  eV     2   --> E_g  L_3       
     e( 10 - 10) =     -4.84966  eV     1   --> A_2u L_2'      
     e( 11 - 12) =     -4.40334  eV     2   --> E_u  L_3'      
     e( 13 - 14) =     -2.13531  eV     2   --> E_g  L_3       
     e( 15 - 15) =     -1.54318  eV     1   --> A_1g L_1       
     e( 16 - 17) =     -0.00975  eV     2   --> E_g  L_3       
     e( 18 - 18) =      2.64149  eV     1   --> A_1g L_1       
     e( 19 - 19) =      3.15435  eV     1   --> A_2u L_2'      
     e( 20 - 20) =      3.51496  eV     1   --> A_1g L_1       
     e( 21 - 21) =      3.87671  eV     1   --> A_2u L_2'      
     e( 22 - 22) =      4.67125  eV     1   --> A_2u L_2'      
     e( 23 - 23) =      4.69082  eV     1   --> A_1g L_1       
     e( 24 - 24) =      6.32661  eV     1   --> A_1g L_1       
     e( 25 - 26) =      7.08606  eV     2   --> E_u  L_3'      
     e( 27 - 27) =      7.18896  eV     1   --> A_2u L_2'      
     e( 28 - 28) =      9.10445  eV     1   --> A_1g L_1       
     e( 29 - 30) =      9.69219  eV     2   --> E_g  L_3       
     e( 31 - 31) =     10.45258  eV     1   --> A_2u L_2'      
     e( 32 - 32) =     10.90881  eV     1   --> A_1g L_1       

 **************************************************************************
 
     BANDS        :   2m 1.71s CPU   2m31.31s WALL

 
   This run was terminated on:  17:48:34  23Sep2023            

=------------------------------------------------------------------------------=
   JOB DONE.
=------------------------------------------------------------------------------=
