
     Program PWSCF v.7.2 starts on 23Sep2023 at 16:51: 2 

     This program is part of the open-source Quantum ESPRESSO suite
     for quantum simulation of materials; please cite
         "P. Giannozzi et al., J. Phys.:Condens. Matter 21 395502 (2009);
         "P. Giannozzi et al., J. Phys.:Condens. Matter 29 465901 (2017);
         "P. Giannozzi et al., J. Chem. Phys. 152 154105 (2020);
          URL http://www.quantum-espresso.org", 
     in publications or presentations arising from this work. More details at
     http://www.quantum-espresso.org/quote

     Parallel version (MPI), running on    10 processors

     MPI processes distributed on     1 nodes
     30660 MiB available memory on the printing compute node when the environment starts
 
     Waiting for input...
     Reading input from standard input

     Current dimensions of program PWSCF are:
     Max number of different atomic species (ntypx) = 10
     Max number of k-points (npk) =  40000
     Max angular momentum in pseudopotentials (lmaxx) =  4

     Atomic positions and unit cell read from directory:
     ./FeCl2.save/
     Atomic positions from file used, from input discarded
 
     file Fe.pbe-spn-kjpaw_psl.1.0.0.UPF: wavefunction(s)  3P 3D renormalized
     file Cl.pbe-n-kjpaw_psl.1.0.0.UPF: wavefunction(s)  3S 3P renormalized
 
     R & G space division:  proc/nbgrp/npool/nimage =      10
     Subspace diagonalization in iterative solution of the eigenvalue problem:
     a serial algorithm will be used

 
     Parallelization info
     --------------------
     sticks:   dense  smooth     PW     G-vecs:    dense   smooth      PW
     Min         141      91     25                25359    12975    1993
     Max         142      92     26                25370    12994    2022
     Sum        1417     913    253               253661   129839   20035
 
     Using Slab Decomposition
 


     bravais-lattice index     =            4
     lattice parameter (alat)  =       6.5573  a.u.
     unit-cell volume          =    1342.9567 (a.u.)^3
     number of atoms/cell      =            3
     number of atomic types    =            2
     number of electrons       =        30.00
     number of Kohn-Sham states=           28
     kinetic-energy cutoff     =      80.0000  Ry
     charge density cutoff     =     500.0000  Ry
     Exchange-correlation= SLA  PW   PBX  PBC
                           (   1   4   3   4   0   0   0)

     celldm(1)=   6.557350  celldm(2)=   0.000000  celldm(3)=   5.763689
     celldm(4)=   0.000000  celldm(5)=   0.000000  celldm(6)=   0.000000

     crystal axes: (cart. coord. in units of alat)
               a(1) = (   0.976839   0.000000   0.000000 )  
               a(2) = (  -0.488419   0.845967   0.000000 )  
               a(3) = (   0.000000   0.000000   5.763689 )  

     reciprocal axes: (cart. coord. in units 2 pi/alat)
               b(1) = (  1.023710  0.591039  0.000000 )  
               b(2) = (  0.000000  1.182079  0.000000 )  
               b(3) = (  0.000000  0.000000  0.173500 )  


     PseudoPot. # 1 for Fe read from file:
     ./Fe.pbe-spn-kjpaw_psl.1.0.0.UPF
     MD5 check sum: fc81f059e5c5069939230b1155715ae8
     Pseudo is Projector augmented-wave + core cor, Zval = 16.0
     Generated using &quot;atomic&quot; code by A. Dal Corso  v.6.3
     Shape of augmentation charge: PSQ
     Using radial grid of 1191 points,  6 beta functions with: 
                l(1) =   0
                l(2) =   0
                l(3) =   1
                l(4) =   1
                l(5) =   2
                l(6) =   2
     Q(r) pseudized with 0 coefficients 


     PseudoPot. # 2 for Cl read from file:
     ./Cl.pbe-n-kjpaw_psl.1.0.0.UPF
     MD5 check sum: 530da96d25dcb7781b0586ca00827062
     Pseudo is Projector augmented-wave + core cor, Zval =  7.0
     Generated using &quot;atomic&quot; code by A. Dal Corso  v.6.3
     Shape of augmentation charge: PSQ
     Using radial grid of 1157 points,  6 beta functions with: 
                l(1) =   0
                l(2) =   0
                l(3) =   1
                l(4) =   1
                l(5) =   2
                l(6) =   2
     Q(r) pseudized with 0 coefficients 


     atomic species   valence    mass     pseudopotential
        Fe            16.00    55.84700     Fe( 1.00)
        Cl             7.00    35.45270     Cl( 1.00)

     12 Sym. Ops., with inversion, found


                                    s                        frac. trans.

      isym =  1     identity                                     

 cryst.   s( 1) = (     1          0          0      )
                  (     0          1          0      )
                  (     0          0          1      )

 cart.    s( 1) = (  1.0000000  0.0000000  0.0000000 )
                  (  0.0000000  1.0000000  0.0000000 )
                  (  0.0000000  0.0000000  1.0000000 )


      isym =  2     180 deg rotation - cart. axis [1,0,0]        

 cryst.   s( 2) = (     1          0          0      )
                  (    -1         -1          0      )
                  (     0          0         -1      )

 cart.    s( 2) = (  1.0000000  0.0000000  0.0000000 )
                  (  0.0000000 -1.0000000  0.0000000 )
                  (  0.0000000  0.0000000 -1.0000000 )


      isym =  3     120 deg rotation - cryst. axis [0,0,1]       

 cryst.   s( 3) = (     0          1          0      )
                  (    -1         -1          0      )
                  (     0          0          1      )

 cart.    s( 3) = ( -0.5000000 -0.8660254  0.0000000 )
                  (  0.8660254 -0.5000000  0.0000000 )
                  (  0.0000000  0.0000000  1.0000000 )


      isym =  4     120 deg rotation - cryst. axis [0,0,-1]      

 cryst.   s( 4) = (    -1         -1          0      )
                  (     1          0          0      )
                  (     0          0          1      )

 cart.    s( 4) = ( -0.5000000  0.8660254  0.0000000 )
                  ( -0.8660254 -0.5000000  0.0000000 )
                  (  0.0000000  0.0000000  1.0000000 )


      isym =  5     180 deg rotation - cryst. axis [0,1,0]       

 cryst.   s( 5) = (    -1         -1          0      )
                  (     0          1          0      )
                  (     0          0         -1      )

 cart.    s( 5) = ( -0.5000000 -0.8660254  0.0000000 )
                  ( -0.8660254  0.5000000  0.0000000 )
                  (  0.0000000  0.0000000 -1.0000000 )


      isym =  6     180 deg rotation - cryst. axis [1,1,0]       

 cryst.   s( 6) = (     0          1          0      )
                  (     1          0          0      )
                  (     0          0         -1      )

 cart.    s( 6) = ( -0.5000000  0.8660254  0.0000000 )
                  (  0.8660254  0.5000000  0.0000000 )
                  (  0.0000000  0.0000000 -1.0000000 )


      isym =  7     inversion                                    

 cryst.   s( 7) = (    -1          0          0      )
                  (     0         -1          0      )
                  (     0          0         -1      )

 cart.    s( 7) = ( -1.0000000  0.0000000  0.0000000 )
                  (  0.0000000 -1.0000000  0.0000000 )
                  (  0.0000000  0.0000000 -1.0000000 )


      isym =  8     inv. 180 deg rotation - cart. axis [1,0,0]   

 cryst.   s( 8) = (    -1          0          0      )
                  (     1          1          0      )
                  (     0          0          1      )

 cart.    s( 8) = ( -1.0000000  0.0000000  0.0000000 )
                  (  0.0000000  1.0000000  0.0000000 )
                  (  0.0000000  0.0000000  1.0000000 )


      isym =  9     inv. 120 deg rotation - cryst. axis [0,0,1]  

 cryst.   s( 9) = (     0         -1          0      )
                  (     1          1          0      )
                  (     0          0         -1      )

 cart.    s( 9) = (  0.5000000  0.8660254  0.0000000 )
                  ( -0.8660254  0.5000000  0.0000000 )
                  (  0.0000000  0.0000000 -1.0000000 )


      isym = 10     inv. 120 deg rotation - cryst. axis [0,0,-1] 

 cryst.   s(10) = (     1          1          0      )
                  (    -1          0          0      )
                  (     0          0         -1      )

 cart.    s(10) = (  0.5000000 -0.8660254  0.0000000 )
                  (  0.8660254  0.5000000  0.0000000 )
                  (  0.0000000  0.0000000 -1.0000000 )


      isym = 11     inv. 180 deg rotation - cryst. axis [0,1,0]  

 cryst.   s(11) = (     1          1          0      )
                  (     0         -1          0      )
                  (     0          0          1      )

 cart.    s(11) = (  0.5000000  0.8660254  0.0000000 )
                  (  0.8660254 -0.5000000  0.0000000 )
                  (  0.0000000  0.0000000  1.0000000 )


      isym = 12     inv. 180 deg rotation - cryst. axis [1,1,0]  

 cryst.   s(12) = (     0         -1          0      )
                  (    -1          0          0      )
                  (     0          0          1      )

 cart.    s(12) = (  0.5000000 -0.8660254  0.0000000 )
                  ( -0.8660254 -0.5000000  0.0000000 )
                  (  0.0000000  0.0000000  1.0000000 )


     point group D_3d (-3m) 
     there are  6 classes
     the character table:

       E     2C3   3C2'  i     2S6   3s_d 
A_1g   1.00  1.00  1.00  1.00  1.00  1.00
A_2g   1.00  1.00 -1.00  1.00  1.00 -1.00
E_g    2.00 -1.00  0.00  2.00 -1.00  0.00
A_1u   1.00  1.00  1.00 -1.00 -1.00 -1.00
A_2u   1.00  1.00 -1.00 -1.00 -1.00  1.00
E_u    2.00 -1.00  0.00 -2.00  1.00  0.00

     the symmetry operations in each class and the name of the first element:

     E        1
          identity                                               
     2C3      3    4
          120 deg rotation - cryst. axis [0,0,1]                 
     3C2'     2    5    6
          180 deg rotation - cart. axis [1,0,0]                  
     i        7
          inversion                                              
     2S6      9   10
          inv. 120 deg rotation - cryst. axis [0,0,1]            
     3s_d     8   11   12
          inv. 180 deg rotation - cart. axis [1,0,0]             

   Cartesian axes

     site n.     atom                  positions (alat units)
         1           Fe  tau(   1) = (   0.0000000   0.0000000   2.8818444  )
         2           Cl  tau(   2) = (   0.0000000   0.5639781   2.5295434  )
         3           Cl  tau(   3) = (   0.4884195   0.2819891   3.2341453  )

   Crystallographic axes

     site n.     atom                  positions (cryst. coord.)
         1           Fe  tau(   1) = (  0.0000000  0.0000000  0.5000000  )
         2           Cl  tau(   2) = (  0.3333333  0.6666666  0.4388758  )
         3           Cl  tau(   3) = (  0.6666667  0.3333333  0.5611242  )

     number of k points=    61 (tetrahedron method)
                       cart. coord. in units 2pi/alat
        k(    1) = (   0.0000000   0.0000000   0.0000000), wk =   0.0034722
        k(    2) = (   0.0000000   0.0492533   0.0000000), wk =   0.0208333
        k(    3) = (   0.0000000   0.0985066   0.0000000), wk =   0.0208333
        k(    4) = (   0.0000000   0.1477599   0.0000000), wk =   0.0208333
        k(    5) = (   0.0000000   0.1970131   0.0000000), wk =   0.0208333
        k(    6) = (   0.0000000   0.2462664   0.0000000), wk =   0.0208333
        k(    7) = (   0.0000000   0.2955197   0.0000000), wk =   0.0208333
        k(    8) = (   0.0000000   0.3447730   0.0000000), wk =   0.0208333
        k(    9) = (   0.0000000   0.3940263   0.0000000), wk =   0.0208333
        k(   10) = (   0.0000000   0.4432796   0.0000000), wk =   0.0208333
        k(   11) = (   0.0000000   0.4925329   0.0000000), wk =   0.0208333
        k(   12) = (   0.0000000   0.5417861   0.0000000), wk =   0.0208333
        k(   13) = (   0.0000000  -0.5910394   0.0000000), wk =   0.0104167
        k(   14) = (   0.0426546   0.0738799   0.0000000), wk =   0.0208333
        k(   15) = (   0.0426546   0.1231332   0.0000000), wk =   0.0416667
        k(   16) = (   0.0426546   0.1723865   0.0000000), wk =   0.0416667
        k(   17) = (   0.0426546   0.2216398   0.0000000), wk =   0.0416667
        k(   18) = (   0.0426546   0.2708931   0.0000000), wk =   0.0416667
        k(   19) = (   0.0426546   0.3201464   0.0000000), wk =   0.0416667
        k(   20) = (   0.0426546   0.3693996   0.0000000), wk =   0.0416667
        k(   21) = (   0.0426546   0.4186529   0.0000000), wk =   0.0416667
        k(   22) = (   0.0426546   0.4679062   0.0000000), wk =   0.0416667
        k(   23) = (   0.0426546   0.5171595   0.0000000), wk =   0.0416667
        k(   24) = (   0.0426546   0.5664128   0.0000000), wk =   0.0416667
        k(   25) = (   0.0853092   0.1477599   0.0000000), wk =   0.0208333
        k(   26) = (   0.0853092   0.1970131   0.0000000), wk =   0.0416667
        k(   27) = (   0.0853092   0.2462664   0.0000000), wk =   0.0416667
        k(   28) = (   0.0853092   0.2955197   0.0000000), wk =   0.0416667
        k(   29) = (   0.0853092   0.3447730   0.0000000), wk =   0.0416667
        k(   30) = (   0.0853092   0.3940263   0.0000000), wk =   0.0416667
        k(   31) = (   0.0853092   0.4432796   0.0000000), wk =   0.0416667
        k(   32) = (   0.0853092   0.4925329   0.0000000), wk =   0.0416667
        k(   33) = (   0.0853092   0.5417861   0.0000000), wk =   0.0416667
        k(   34) = (   0.0853092   0.5910394   0.0000000), wk =   0.0208333
        k(   35) = (   0.1279638   0.2216398   0.0000000), wk =   0.0208333
        k(   36) = (   0.1279638   0.2708931   0.0000000), wk =   0.0416667
        k(   37) = (   0.1279638   0.3201464   0.0000000), wk =   0.0416667
        k(   38) = (   0.1279638   0.3693996   0.0000000), wk =   0.0416667
        k(   39) = (   0.1279638   0.4186529   0.0000000), wk =   0.0416667
        k(   40) = (   0.1279638   0.4679062   0.0000000), wk =   0.0416667
        k(   41) = (   0.1279638   0.5171595   0.0000000), wk =   0.0416667
        k(   42) = (   0.1279638   0.5664128   0.0000000), wk =   0.0416667
        k(   43) = (   0.1706184   0.2955197   0.0000000), wk =   0.0208333
        k(   44) = (   0.1706184   0.3447730   0.0000000), wk =   0.0416667
        k(   45) = (   0.1706184   0.3940263   0.0000000), wk =   0.0416667
        k(   46) = (   0.1706184   0.4432796   0.0000000), wk =   0.0416667
        k(   47) = (   0.1706184   0.4925329   0.0000000), wk =   0.0416667
        k(   48) = (   0.1706184   0.5417861   0.0000000), wk =   0.0416667
        k(   49) = (   0.1706184   0.5910394   0.0000000), wk =   0.0208333
        k(   50) = (   0.2132730   0.3693996   0.0000000), wk =   0.0208333
        k(   51) = (   0.2132730   0.4186529   0.0000000), wk =   0.0416667
        k(   52) = (   0.2132730   0.4679062   0.0000000), wk =   0.0416667
        k(   53) = (   0.2132730   0.5171595   0.0000000), wk =   0.0416667
        k(   54) = (   0.2132730   0.5664128   0.0000000), wk =   0.0416667
        k(   55) = (   0.2559276   0.4432796   0.0000000), wk =   0.0208333
        k(   56) = (   0.2559276   0.4925329   0.0000000), wk =   0.0416667
        k(   57) = (   0.2559276   0.5417861   0.0000000), wk =   0.0416667
        k(   58) = (   0.2559276   0.5910394   0.0000000), wk =   0.0208333
        k(   59) = (   0.2985822   0.5171595   0.0000000), wk =   0.0208333
        k(   60) = (   0.2985822   0.5664128   0.0000000), wk =   0.0416667
        k(   61) = (   0.3412368   0.5910394   0.0000000), wk =   0.0069444

                       cryst. coord.
        k(    1) = (   0.0000000   0.0000000   0.0000000), wk =   0.0034722
        k(    2) = (   0.0000000   0.0416667   0.0000000), wk =   0.0208333
        k(    3) = (   0.0000000   0.0833333   0.0000000), wk =   0.0208333
        k(    4) = (   0.0000000   0.1250000   0.0000000), wk =   0.0208333
        k(    5) = (   0.0000000   0.1666667   0.0000000), wk =   0.0208333
        k(    6) = (   0.0000000   0.2083333   0.0000000), wk =   0.0208333
        k(    7) = (   0.0000000   0.2500000   0.0000000), wk =   0.0208333
        k(    8) = (   0.0000000   0.2916667   0.0000000), wk =   0.0208333
        k(    9) = (   0.0000000   0.3333333   0.0000000), wk =   0.0208333
        k(   10) = (   0.0000000   0.3750000   0.0000000), wk =   0.0208333
        k(   11) = (   0.0000000   0.4166667   0.0000000), wk =   0.0208333
        k(   12) = (   0.0000000   0.4583333   0.0000000), wk =   0.0208333
        k(   13) = (   0.0000000  -0.5000000   0.0000000), wk =   0.0104167
        k(   14) = (   0.0416667   0.0416667   0.0000000), wk =   0.0208333
        k(   15) = (   0.0416667   0.0833333   0.0000000), wk =   0.0416667
        k(   16) = (   0.0416667   0.1250000   0.0000000), wk =   0.0416667
        k(   17) = (   0.0416667   0.1666667   0.0000000), wk =   0.0416667
        k(   18) = (   0.0416667   0.2083333   0.0000000), wk =   0.0416667
        k(   19) = (   0.0416667   0.2500000   0.0000000), wk =   0.0416667
        k(   20) = (   0.0416667   0.2916667   0.0000000), wk =   0.0416667
        k(   21) = (   0.0416667   0.3333333   0.0000000), wk =   0.0416667
        k(   22) = (   0.0416667   0.3750000   0.0000000), wk =   0.0416667
        k(   23) = (   0.0416667   0.4166667   0.0000000), wk =   0.0416667
        k(   24) = (   0.0416667   0.4583333   0.0000000), wk =   0.0416667
        k(   25) = (   0.0833333   0.0833333   0.0000000), wk =   0.0208333
        k(   26) = (   0.0833333   0.1250000   0.0000000), wk =   0.0416667
        k(   27) = (   0.0833333   0.1666667   0.0000000), wk =   0.0416667
        k(   28) = (   0.0833333   0.2083333   0.0000000), wk =   0.0416667
        k(   29) = (   0.0833333   0.2500000   0.0000000), wk =   0.0416667
        k(   30) = (   0.0833333   0.2916667   0.0000000), wk =   0.0416667
        k(   31) = (   0.0833333   0.3333333   0.0000000), wk =   0.0416667
        k(   32) = (   0.0833333   0.3750000   0.0000000), wk =   0.0416667
        k(   33) = (   0.0833333   0.4166667   0.0000000), wk =   0.0416667
        k(   34) = (   0.0833333   0.4583333   0.0000000), wk =   0.0208333
        k(   35) = (   0.1250000   0.1250000   0.0000000), wk =   0.0208333
        k(   36) = (   0.1250000   0.1666667   0.0000000), wk =   0.0416667
        k(   37) = (   0.1250000   0.2083333   0.0000000), wk =   0.0416667
        k(   38) = (   0.1250000   0.2500000   0.0000000), wk =   0.0416667
        k(   39) = (   0.1250000   0.2916667   0.0000000), wk =   0.0416667
        k(   40) = (   0.1250000   0.3333333   0.0000000), wk =   0.0416667
        k(   41) = (   0.1250000   0.3750000   0.0000000), wk =   0.0416667
        k(   42) = (   0.1250000   0.4166667   0.0000000), wk =   0.0416667
        k(   43) = (   0.1666667   0.1666667   0.0000000), wk =   0.0208333
        k(   44) = (   0.1666667   0.2083333   0.0000000), wk =   0.0416667
        k(   45) = (   0.1666667   0.2500000   0.0000000), wk =   0.0416667
        k(   46) = (   0.1666667   0.2916667   0.0000000), wk =   0.0416667
        k(   47) = (   0.1666667   0.3333333   0.0000000), wk =   0.0416667
        k(   48) = (   0.1666667   0.3750000   0.0000000), wk =   0.0416667
        k(   49) = (   0.1666667   0.4166667   0.0000000), wk =   0.0208333
        k(   50) = (   0.2083333   0.2083333   0.0000000), wk =   0.0208333
        k(   51) = (   0.2083333   0.2500000   0.0000000), wk =   0.0416667
        k(   52) = (   0.2083333   0.2916667   0.0000000), wk =   0.0416667
        k(   53) = (   0.2083333   0.3333333   0.0000000), wk =   0.0416667
        k(   54) = (   0.2083333   0.3750000   0.0000000), wk =   0.0416667
        k(   55) = (   0.2500000   0.2500000   0.0000000), wk =   0.0208333
        k(   56) = (   0.2500000   0.2916667   0.0000000), wk =   0.0416667
        k(   57) = (   0.2500000   0.3333333   0.0000000), wk =   0.0416667
        k(   58) = (   0.2500000   0.3750000   0.0000000), wk =   0.0208333
        k(   59) = (   0.2916667   0.2916667   0.0000000), wk =   0.0208333
        k(   60) = (   0.2916667   0.3333333   0.0000000), wk =   0.0416667
        k(   61) = (   0.3333333   0.3333333   0.0000000), wk =   0.0069444

     Dense  grid:   253661 G-vectors     FFT dimensions: (  45,  45, 270)

     Smooth grid:   129839 G-vectors     FFT dimensions: (  40,  40, 216)

     Dynamical RAM for                 wfc:       0.69 MB

     Dynamical RAM for     wfc (w. buffer):       0.69 MB

     Dynamical RAM for           str. fact:       0.77 MB

     Dynamical RAM for           local pot:       0.00 MB

     Dynamical RAM for          nlocal pot:       1.34 MB

     Dynamical RAM for                qrad:       3.59 MB

     Dynamical RAM for          rho,v,vnew:       2.41 MB

     Dynamical RAM for           G-vectors:       1.55 MB

     Dynamical RAM for          h,s,v(r/c):       0.14 MB

     Dynamical RAM for          <psi|beta>:       0.02 MB

     Dynamical RAM for                 psi:       1.39 MB

     Dynamical RAM for                hpsi:       1.39 MB

     Dynamical RAM for                spsi:       1.39 MB

     Dynamical RAM for      wfcinit/wfcrot:       1.40 MB

     Dynamical RAM for           addusdens:      72.78 MB

     Estimated static dynamical RAM per process >      13.60 MB

     Estimated max dynamical RAM per process >      86.38 MB

     Estimated total dynamical RAM >     863.81 MB

     The potential is recalculated from file :
     ./FeCl2.save/charge-density


     negative rho (up, down):  1.625E-04 0.000E+00
     Starting wfcs are   18 randomized atomic wfcs +   10 random wfcs
     Checking if some PAW data can be deallocated... 
       PAW data deallocated on    6 nodes for type:  1
       PAW data deallocated on    4 nodes for type:  2

     Band Structure Calculation
     Davidson diagonalization with overlap

     Computing kpt #:     1  of    61
     total cpu time spent up to now is        4.0 secs

     Computing kpt #:     2  of    61
     total cpu time spent up to now is        5.2 secs

     Computing kpt #:     3  of    61
     total cpu time spent up to now is        6.7 secs

     Computing kpt #:     4  of    61
     total cpu time spent up to now is        7.8 secs

     Computing kpt #:     5  of    61
     total cpu time spent up to now is        8.9 secs

     Computing kpt #:     6  of    61
     total cpu time spent up to now is       10.1 secs

     Computing kpt #:     7  of    61
     total cpu time spent up to now is       11.5 secs

     Computing kpt #:     8  of    61
     total cpu time spent up to now is       12.7 secs

     Computing kpt #:     9  of    61
     total cpu time spent up to now is       13.8 secs

     Computing kpt #:    10  of    61
     total cpu time spent up to now is       14.9 secs

     Computing kpt #:    11  of    61
     total cpu time spent up to now is       16.0 secs

     Computing kpt #:    12  of    61
     total cpu time spent up to now is       17.2 secs

     Computing kpt #:    13  of    61
     total cpu time spent up to now is       18.4 secs

     Computing kpt #:    14  of    61
     total cpu time spent up to now is       19.8 secs

     Computing kpt #:    15  of    61
     total cpu time spent up to now is       21.0 secs

     Computing kpt #:    16  of    61
     total cpu time spent up to now is       22.1 secs

     Computing kpt #:    17  of    61
     total cpu time spent up to now is       23.3 secs

     Computing kpt #:    18  of    61
     total cpu time spent up to now is       24.6 secs

     Computing kpt #:    19  of    61
     total cpu time spent up to now is       25.8 secs

     Computing kpt #:    20  of    61
     total cpu time spent up to now is       27.0 secs

     Computing kpt #:    21  of    61
     total cpu time spent up to now is       28.1 secs

     Computing kpt #:    22  of    61
     total cpu time spent up to now is       29.2 secs

     Computing kpt #:    23  of    61
     total cpu time spent up to now is       30.4 secs

     Computing kpt #:    24  of    61
     total cpu time spent up to now is       31.6 secs

     Computing kpt #:    25  of    61
     total cpu time spent up to now is       32.8 secs

     Computing kpt #:    26  of    61
     total cpu time spent up to now is       33.9 secs

     Computing kpt #:    27  of    61
     total cpu time spent up to now is       35.2 secs

     Computing kpt #:    28  of    61
     total cpu time spent up to now is       36.6 secs

     Computing kpt #:    29  of    61
     total cpu time spent up to now is       37.9 secs

     Computing kpt #:    30  of    61
     total cpu time spent up to now is       39.1 secs

     Computing kpt #:    31  of    61
     total cpu time spent up to now is       40.1 secs

     Computing kpt #:    32  of    61
     total cpu time spent up to now is       41.3 secs

     Computing kpt #:    33  of    61
     total cpu time spent up to now is       42.5 secs

     Computing kpt #:    34  of    61
     total cpu time spent up to now is       43.6 secs

     Computing kpt #:    35  of    61
     total cpu time spent up to now is       45.0 secs

     Computing kpt #:    36  of    61
     total cpu time spent up to now is       46.2 secs

     Computing kpt #:    37  of    61
     total cpu time spent up to now is       47.3 secs

     Computing kpt #:    38  of    61
     total cpu time spent up to now is       48.5 secs

     Computing kpt #:    39  of    61
     total cpu time spent up to now is       49.7 secs

     Computing kpt #:    40  of    61
     total cpu time spent up to now is       50.8 secs

     Computing kpt #:    41  of    61
     total cpu time spent up to now is       52.1 secs

     Computing kpt #:    42  of    61
     total cpu time spent up to now is       53.3 secs

     Computing kpt #:    43  of    61
     total cpu time spent up to now is       54.5 secs

     Computing kpt #:    44  of    61
     total cpu time spent up to now is       55.7 secs

     Computing kpt #:    45  of    61
     total cpu time spent up to now is       56.8 secs

     Computing kpt #:    46  of    61
     total cpu time spent up to now is       57.9 secs

     Computing kpt #:    47  of    61
     total cpu time spent up to now is       59.1 secs

     Computing kpt #:    48  of    61
     total cpu time spent up to now is       60.6 secs

     Computing kpt #:    49  of    61
     total cpu time spent up to now is       61.7 secs

     Computing kpt #:    50  of    61
     total cpu time spent up to now is       62.8 secs

     Computing kpt #:    51  of    61
     total cpu time spent up to now is       64.0 secs

     Computing kpt #:    52  of    61
     total cpu time spent up to now is       65.1 secs

     Computing kpt #:    53  of    61
     total cpu time spent up to now is       66.3 secs

     Computing kpt #:    54  of    61
     total cpu time spent up to now is       67.5 secs

     Computing kpt #:    55  of    61
     total cpu time spent up to now is       68.6 secs

     Computing kpt #:    56  of    61
     total cpu time spent up to now is       69.7 secs

     Computing kpt #:    57  of    61
     total cpu time spent up to now is       71.1 secs

     Computing kpt #:    58  of    61
     total cpu time spent up to now is       72.3 secs

     Computing kpt #:    59  of    61
     total cpu time spent up to now is       73.4 secs

     Computing kpt #:    60  of    61
     total cpu time spent up to now is       74.8 secs

     Computing kpt #:    61  of    61
     total cpu time spent up to now is       76.3 secs

     ethr =  3.33E-11,  avg # of iterations = 55.3

     total cpu time spent up to now is       76.3 secs

     End of band structure calculation

          k = 0.0000 0.0000 0.0000 ( 16049 PWs)   bands (ev):

   -87.7488 -53.8664 -53.8664 -53.8522 -18.9640 -17.7355  -7.8168  -6.3280
    -6.3280  -4.8497  -4.4033  -4.4033  -2.1353  -2.1353  -1.5432  -0.0097
    -0.0097   2.6343   3.1399   3.4773   3.8761   4.6407   4.6730   6.3022
     7.0861   7.0861   7.1623   9.0817

     occupation numbers 
     1.0000   1.0000   1.0000   1.0000   1.0000   1.0000   1.0000   1.0000
     1.0000   1.0000   1.0000   1.0000   1.0000   1.0000   1.0000   0.0000
     0.0000   0.0000   0.0000   0.0000   0.0000   0.0000   0.0000   0.0000
     0.0000   0.0000   0.0000   0.0000

          k = 0.0000 0.0493 0.0000 ( 16135 PWs)   bands (ev):

   -87.7488 -53.8667 -53.8666 -53.8522 -18.9492 -17.7311  -7.8016  -6.3812
    -6.3251  -4.8126  -4.5020  -4.4381  -2.1192  -2.1062  -1.5318  -0.0575
    -0.0224   2.6817   3.1692   3.5139   3.9744   4.6680   4.7206   6.3211
     7.0340   7.1444   7.1825   9.1122

     occupation numbers 
     1.0000   1.0000   1.0000   1.0000   1.0000   1.0000   1.0000   1.0000
     1.0000   1.0000   1.0000   1.0000   1.0000   1.0000   1.0000   0.0000
     0.0000   0.0000   0.0000   0.0000   0.0000   0.0000   0.0000   0.0000
     0.0000   0.0000   0.0000   0.0000

          k = 0.0000 0.0985 0.0000 ( 16151 PWs)   bands (ev):

   -87.7487 -53.8675 -53.8668 -53.8521 -18.9053 -17.7183  -7.7572  -6.5208
    -6.3165  -4.7737  -4.7193  -4.5346  -2.0874  -2.0273  -1.4994  -0.1789
    -0.0565   2.8165   3.2544   3.6225   4.2422   4.7496   4.8611   6.3546
     6.9248   7.2448   7.3132   9.1929

     occupation numbers 
     1.0000   1.0000   1.0000   1.0000   1.0000   1.0000   1.0000   1.0000
     1.0000   1.0000   1.0000   1.0000   1.0000   1.0000   1.0000   0.0000
     0.0000   0.0000   0.0000   0.0000   0.0000   0.0000   0.0000   0.0000
     0.0000   0.0000   0.0000   0.0000

          k = 0.0000 0.1478 0.0000 ( 16160 PWs)   bands (ev):

   -87.7487 -53.8687 -53.8671 -53.8519 -18.8338 -17.6983  -7.6879  -6.7099
    -6.3025  -5.1421  -4.6747  -4.6289  -2.0657  -1.9197  -1.4538  -0.3249
    -0.1025   3.0202   3.3905   3.7987   4.5999   4.8888   5.0839   6.3277
     6.9045   7.3454   7.5736   8.9065

     occupation numbers 
     1.0000   1.0000   1.0000   1.0000   1.0000   1.0000   1.0000   1.0000
     1.0000   1.0000   1.0000   1.0000   1.0000   1.0000   1.0000   0.0000
     0.0000   0.0000   0.0000   0.0000   0.0000   0.0000   0.0000   0.0000
     0.0000   0.0000   0.0000   0.0000

          k = 0.0000 0.1970 0.0000 ( 16192 PWs)   bands (ev):

   -87.7486 -53.8703 -53.8674 -53.8517 -18.7376 -17.6729  -7.6033  -6.9205
    -6.2838  -5.5545  -4.8391  -4.5701  -2.0637  -1.8068  -1.4080  -0.4455
    -0.1478   3.2728   3.5722   4.0352   4.8858   5.1123   5.3606   6.2889
     7.0300   7.4862   7.8894   8.6290

     occupation numbers 
     1.0000   1.0000   1.0000   1.0000   1.0000   1.0000   1.0000   1.0000
     1.0000   1.0000   1.0000   1.0000   1.0000   1.0000   1.0000   0.0000
     0.0000   0.0000   0.0000   0.0000   0.0000   0.0000   0.0000   0.0000
     0.0000   0.0000   0.0000   0.0000

          k = 0.0000 0.2463 0.0000 ( 16196 PWs)   bands (ev):

   -87.7485 -53.8721 -53.8679 -53.8515 -18.6205 -17.6448  -7.5244  -7.1363
    -6.2610  -5.9454  -5.0123  -4.5717  -2.0781  -1.7082  -1.3744  -0.5049
    -0.1797   3.5549   3.7925   4.3226   4.9735   5.3652   5.6525   6.4430
     7.1750   7.6960   8.1956   8.5064

     occupation numbers 
     1.0000   1.0000   1.0000   1.0000   1.0000   1.0000   1.0000   1.0000
     1.0000   1.0000   1.0000   1.0000   1.0000   1.0000   1.0000   0.0000
     0.0000   0.0000   0.0000   0.0000   0.0000   0.0000   0.0000   0.0000
     0.0000   0.0000   0.0000   0.0000

          k = 0.0000 0.2955 0.0000 ( 16210 PWs)   bands (ev):

   -87.7484 -53.8741 -53.8684 -53.8512 -18.4874 -17.6171  -7.5170  -7.3255
    -6.2437  -6.2346  -5.1828  -4.6414  -2.1025  -1.6359  -1.3602  -0.4898
    -0.1901   3.8204   4.0554   4.6466   4.9428   5.6067   5.8795   6.7313
     7.3253   7.9567   8.3971   8.6150

     occupation numbers 
     1.0000   1.0000   1.0000   1.0000   1.0000   1.0000   1.0000   1.0000
     1.0000   1.0000   1.0000   1.0000   1.0000   1.0000   1.0000   0.0000
     0.0000   0.0000   0.0000   0.0000   0.0000   0.0000   0.0000   0.0000
     0.0000   0.0000   0.0000   0.0000

          k = 0.0000 0.3448 0.0000 ( 16240 PWs)   bands (ev):

   -87.7483 -53.8760 -53.8689 -53.8509 -18.3446 -17.5938  -7.7056  -7.4069
    -6.3810  -6.2051  -5.3431  -4.7699  -2.1313  -1.5927  -1.3660  -0.4109
    -0.1783   3.9620   4.3927   4.8982   5.0706   5.7620   6.0356   7.0108
     7.5628   8.2231   8.4407   8.4955

     occupation numbers 
     1.0000   1.0000   1.0000   1.0000   1.0000   1.0000   1.0000   1.0000
     1.0000   1.0000   1.0000   1.0000   1.0000   1.0000   1.0000   0.0000
     0.0000   0.0000   0.0000   0.0000   0.0000   0.0000   0.0000   0.0000
     0.0000   0.0000   0.0000   0.0000

          k = 0.0000 0.3940 0.0000 ( 16252 PWs)   bands (ev):

   -87.7482 -53.8778 -53.8694 -53.8506 -18.1994 -17.5788  -7.9743  -7.4790
    -6.3585  -6.1726  -5.4877  -4.9380  -2.1603  -1.5736  -1.3881  -0.2933
    -0.1505   3.9616   4.7816   5.0372   5.3889   5.7862   6.3124   7.2627
     7.8234   8.2606   8.3748   8.5562

     occupation numbers 
     1.0000   1.0000   1.0000   1.0000   1.0000   1.0000   1.0000   1.0000
     1.0000   1.0000   1.0000   1.0000   1.0000   1.0000   1.0000   0.0000
     0.0000   0.0000   0.0000   0.0000   0.0000   0.0000   0.0000   0.0000
     0.0000   0.0000   0.0000   0.0000

          k = 0.0000 0.4433 0.0000 ( 16250 PWs)   bands (ev):

   -87.7481 -53.8794 -53.8698 -53.8504 -18.0597 -17.5764  -8.2337  -7.5548
    -6.2427  -6.1375  -5.6132  -5.1248  -2.1868  -1.5700  -1.4200  -0.1658
    -0.1166   3.9177   4.9374   5.2879   5.6335   6.0887   6.6380   7.3901
     8.0497   8.2265   8.2717   8.7705

     occupation numbers 
     1.0000   1.0000   1.0000   1.0000   1.0000   1.0000   1.0000   1.0000
     1.0000   1.0000   1.0000   1.0000   1.0000   1.0000   1.0000   0.0000
     0.0000   0.0000   0.0000   0.0000   0.0000   0.0000   0.0000   0.0000
     0.0000   0.0000   0.0000   0.0000

          k = 0.0000 0.4925 0.0000 ( 16266 PWs)   bands (ev):

   -87.7480 -53.8806 -53.8700 -53.8502 -17.9344 -17.5895  -8.4428  -7.6143
    -6.1008  -6.0890  -5.7160  -5.3128  -2.2085  -1.5733  -1.4533  -0.0858
    -0.0543   3.8956   4.7743   5.7026   5.9253   6.5422   6.9937   7.3590
     8.0651   8.1765   8.6078   8.8030

     occupation numbers 
     1.0000   1.0000   1.0000   1.0000   1.0000   1.0000   1.0000   1.0000
     1.0000   1.0000   1.0000   1.0000   1.0000   1.0000   1.0000   0.0000
     0.0000   0.0000   0.0000   0.0000   0.0000   0.0000   0.0000   0.0000
     0.0000   0.0000   0.0000   0.0000

          k = 0.0000 0.5418 0.0000 ( 16256 PWs)   bands (ev):

   -87.7480 -53.8813 -53.8702 -53.8501 -17.8353 -17.6165  -8.5773  -7.6506
    -6.0675  -5.9315  -5.7895  -5.4858  -2.2230  -1.5776  -1.4786  -0.0647
     0.0211   3.9041   4.6137   6.0253   6.1978   6.9667   7.2758   7.4877
     7.9968   8.1121   8.4878   8.7732

     occupation numbers 
     1.0000   1.0000   1.0000   1.0000   1.0000   1.0000   1.0000   1.0000
     1.0000   1.0000   1.0000   1.0000   1.0000   1.0000   1.0000   0.0000
     0.0000   0.0000   0.0000   0.0000   0.0000   0.0000   0.0000   0.0000
     0.0000   0.0000   0.0000   0.0000

          k = 0.0000-0.5910 0.0000 ( 16282 PWs)   bands (ev):

   -87.7480 -53.8816 -53.8703 -53.8501 -17.7907 -17.6364  -8.6235  -7.6627
    -6.0521  -5.8372  -5.8184  -5.5844  -2.2282  -1.5794  -1.4880  -0.0572
     0.0476   3.9150   4.5482   6.1643   6.2844   7.2095   7.3365   7.7635
     7.9778   8.0896   8.2321   8.2807

     occupation numbers 
     1.0000   1.0000   1.0000   1.0000   1.0000   1.0000   1.0000   1.0000
     1.0000   1.0000   1.0000   1.0000   1.0000   1.0000   1.0000   0.0000
     0.0000   0.0000   0.0000   0.0000   0.0000   0.0000   0.0000   0.0000
     0.0000   0.0000   0.0000   0.0000

          k = 0.0427 0.0739 0.0000 ( 16153 PWs)   bands (ev):

   -87.7488 -53.8673 -53.8667 -53.8521 -18.9198 -17.7225  -7.7718  -6.4764
    -6.3200  -4.7508  -4.6820  -4.5057  -2.0839  -2.0637  -1.5097  -0.1389
    -0.0488   2.7729   3.2264   3.5865   4.1582   4.7224   4.8148   6.3477
     6.9555   7.1893   7.2894   9.1704

     occupation numbers 
     1.0000   1.0000   1.0000   1.0000   1.0000   1.0000   1.0000   1.0000
     1.0000   1.0000   1.0000   1.0000   1.0000   1.0000   1.0000   0.0000
     0.0000   0.0000   0.0000   0.0000   0.0000   0.0000   0.0000   0.0000
     0.0000   0.0000   0.0000   0.0000

          k = 0.0427 0.1231 0.0000 ( 16163 PWs)   bands (ev):

   -87.7487 -53.8682 -53.8670 -53.8520 -18.8621 -17.7061  -7.7148  -6.6370
    -6.3108  -4.9953  -4.6688  -4.6215  -2.0455  -1.9834  -1.4702  -0.2654
    -0.0962   2.9424   3.3370   3.7292   4.4782   4.8320   4.9977   6.3433
     6.8925   7.2556   7.5201   9.0221

     occupation numbers 
     1.0000   1.0000   1.0000   1.0000   1.0000   1.0000   1.0000   1.0000
     1.0000   1.0000   1.0000   1.0000   1.0000   1.0000   1.0000   0.0000
     0.0000   0.0000   0.0000   0.0000   0.0000   0.0000   0.0000   0.0000
     0.0000   0.0000   0.0000   0.0000

          k = 0.0427 0.1724 0.0000 ( 16186 PWs)   bands (ev):

   -87.7486 -53.8696 -53.8673 -53.8518 -18.7783 -17.6834  -7.6373  -6.8313
    -6.2975  -5.3816  -4.7889  -4.5844  -2.0327  -1.8749  -1.4243  -0.3915
    -0.1494   3.1708   3.4961   3.9361   4.8243   5.0149   5.2507   6.2637
     6.9710   7.3579   7.8285   8.7136

     occupation numbers 
     1.0000   1.0000   1.0000   1.0000   1.0000   1.0000   1.0000   1.0000
     1.0000   1.0000   1.0000   1.0000   1.0000   1.0000   1.0000   0.0000
     0.0000   0.0000   0.0000   0.0000   0.0000   0.0000   0.0000   0.0000
     0.0000   0.0000   0.0000   0.0000

          k = 0.0427 0.2216 0.0000 ( 16190 PWs)   bands (ev):

   -87.7485 -53.8713 -53.8678 -53.8516 -18.6716 -17.6566  -7.5535  -7.0385
    -6.2806  -5.7803  -4.9600  -4.5593  -2.0404  -1.7671  -1.3855  -0.4766
    -0.1928   3.4405   3.6975   4.1989   5.0139   5.2782   5.5402   6.2902
     7.1283   7.5044   8.1637   8.4966

     occupation numbers 
     1.0000   1.0000   1.0000   1.0000   1.0000   1.0000   1.0000   1.0000
     1.0000   1.0000   1.0000   1.0000   1.0000   1.0000   1.0000   0.0000
     0.0000   0.0000   0.0000   0.0000   0.0000   0.0000   0.0000   0.0000
     0.0000   0.0000   0.0000   0.0000

          k = 0.0427 0.2709 0.0000 ( 16206 PWs)   bands (ev):

   -87.7484 -53.8732 -53.8682 -53.8513 -18.5465 -17.6285  -7.4983  -7.2430
    -6.2604  -6.1257  -5.1334  -4.5979  -2.0614  -1.6783  -1.3641  -0.4968
    -0.2146   3.7272   3.9359   4.5080   5.0254   5.5080   5.8234   6.5535
     7.2522   7.7107   8.4148   8.5111

     occupation numbers 
     1.0000   1.0000   1.0000   1.0000   1.0000   1.0000   1.0000   1.0000
     1.0000   1.0000   1.0000   1.0000   1.0000   1.0000   1.0000   0.0000
     0.0000   0.0000   0.0000   0.0000   0.0000   0.0000   0.0000   0.0000
     0.0000   0.0000   0.0000   0.0000

          k = 0.0427 0.3201 0.0000 ( 16228 PWs)   bands (ev):

   -87.7483 -53.8751 -53.8688 -53.8510 -18.4085 -17.6028  -7.5852  -7.3762
    -6.3419  -6.2368  -5.2997  -4.6999  -2.0890  -1.6173  -1.3636  -0.4510
    -0.2099   3.9533   4.2327   4.8340   5.0062   5.7316   5.9996   6.8695
     7.4398   7.9077   8.4963   8.6431

     occupation numbers 
     1.0000   1.0000   1.0000   1.0000   1.0000   1.0000   1.0000   1.0000
     1.0000   1.0000   1.0000   1.0000   1.0000   1.0000   1.0000   0.0000
     0.0000   0.0000   0.0000   0.0000   0.0000   0.0000   0.0000   0.0000
     0.0000   0.0000   0.0000   0.0000

          k = 0.0427 0.3694 0.0000 ( 16239 PWs)   bands (ev):

   -87.7482 -53.8770 -53.8693 -53.8507 -18.2644 -17.5833  -7.8289  -7.4434
    -6.3889  -6.2090  -5.4532  -4.8504  -2.1184  -1.5839  -1.3807  -0.3576
    -0.1822   4.0267   4.6062   5.0036   5.2675   5.8045   6.1904   7.1522
     7.6948   8.1242   8.3847   8.5807

     occupation numbers 
     1.0000   1.0000   1.0000   1.0000   1.0000   1.0000   1.0000   1.0000
     1.0000   1.0000   1.0000   1.0000   1.0000   1.0000   1.0000   0.0000
     0.0000   0.0000   0.0000   0.0000   0.0000   0.0000   0.0000   0.0000
     0.0000   0.0000   0.0000   0.0000

          k = 0.0427 0.4187 0.0000 ( 16229 PWs)   bands (ev):

   -87.7481 -53.8786 -53.8697 -53.8505 -18.1218 -17.5743  -8.0967  -7.5194
    -6.3135  -6.1743  -5.5900  -5.0288  -2.1465  -1.5715  -1.4091  -0.2462
    -0.1384   3.9977   4.9753   5.1328   5.5550   5.9285   6.4918   7.3493
     7.9864   8.1674   8.2687   8.6598

     occupation numbers 
     1.0000   1.0000   1.0000   1.0000   1.0000   1.0000   1.0000   1.0000
     1.0000   1.0000   1.0000   1.0000   1.0000   1.0000   1.0000   0.0000
     0.0000   0.0000   0.0000   0.0000   0.0000   0.0000   0.0000   0.0000
     0.0000   0.0000   0.0000   0.0000

          k = 0.0427 0.4679 0.0000 ( 16241 PWs)   bands (ev):

   -87.7481 -53.8800 -53.8700 -53.8503 -17.9892 -17.5793  -8.3329  -7.5863
    -6.1942  -6.1208  -5.7065  -5.2160  -2.1711  -1.5710  -1.4417  -0.1540
    -0.0782   3.9603   4.9275   5.5090   5.8118   6.3312   6.8311   7.3971
     8.0049   8.2148   8.4488   8.7716

     occupation numbers 
     1.0000   1.0000   1.0000   1.0000   1.0000   1.0000   1.0000   1.0000
     1.0000   1.0000   1.0000   1.0000   1.0000   1.0000   1.0000   0.0000
     0.0000   0.0000   0.0000   0.0000   0.0000   0.0000   0.0000   0.0000
     0.0000   0.0000   0.0000   0.0000

          k = 0.0427 0.5172 0.0000 ( 16268 PWs)   bands (ev):

   -87.7480 -53.8810 -53.8703 -53.8502 -17.8760 -17.5998  -8.5057  -7.6326
    -6.1164  -6.0140  -5.7891  -5.3974  -2.1899  -1.5745  -1.4706  -0.1051
    -0.0082   3.9523   4.7568   5.9013   6.1007   6.7884   7.1889   7.3768
     7.9264   8.2251   8.6493   8.9634

     occupation numbers 
     1.0000   1.0000   1.0000   1.0000   1.0000   1.0000   1.0000   1.0000
     1.0000   1.0000   1.0000   1.0000   1.0000   1.0000   1.0000   0.0000
     0.0000   0.0000   0.0000   0.0000   0.0000   0.0000   0.0000   0.0000
     0.0000   0.0000   0.0000   0.0000

          k = 0.0427 0.5664 0.0000 ( 16269 PWs)   bands (ev):

   -87.7480 -53.8814 -53.8704 -53.8501 -17.7993 -17.6279  -8.5965  -7.6557
    -6.0702  -5.9580  -5.7735  -5.5530  -2.2002  -1.5771  -1.4877  -0.0843
     0.0356   3.9635   4.6409   6.1548   6.2883   7.1327   7.3300   7.6891
     7.9652   8.0455   8.3398   8.4998

     occupation numbers 
     1.0000   1.0000   1.0000   1.0000   1.0000   1.0000   1.0000   1.0000
     1.0000   1.0000   1.0000   1.0000   1.0000   1.0000   1.0000   0.0000
     0.0000   0.0000   0.0000   0.0000   0.0000   0.0000   0.0000   0.0000
     0.0000   0.0000   0.0000   0.0000

          k = 0.0853 0.1478 0.0000 ( 16181 PWs)   bands (ev):

   -87.7487 -53.8694 -53.8673 -53.8519 -18.7920 -17.6870  -7.6493  -6.7967
    -6.3056  -5.3123  -4.7830  -4.5897  -1.9624  -1.9569  -1.4298  -0.3591
    -0.1636   3.1367   3.4707   3.9030   4.8090   4.9830   5.2137   6.2479
     6.9516   7.2886   7.8332   8.7440

     occupation numbers 
     1.0000   1.0000   1.0000   1.0000   1.0000   1.0000   1.0000   1.0000
     1.0000   1.0000   1.0000   1.0000   1.0000   1.0000   1.0000   0.0000
     0.0000   0.0000   0.0000   0.0000   0.0000   0.0000   0.0000   0.0000
     0.0000   0.0000   0.0000   0.0000

          k = 0.0853 0.1970 0.0000 ( 16196 PWs)   bands (ev):

   -87.7486 -53.8708 -53.8677 -53.8516 -18.6977 -17.6627  -7.5709  -6.9775
    -6.3005  -5.6745  -4.9554  -4.5543  -1.9611  -1.8516  -1.3915  -0.4328
    -0.2324   3.3837   3.6502   4.1372   5.0658   5.2778   5.4777   6.1386
     7.1131   7.3584   8.1897   8.4801

     occupation numbers 
     1.0000   1.0000   1.0000   1.0000   1.0000   1.0000   1.0000   1.0000
     1.0000   1.0000   1.0000   1.0000   1.0000   1.0000   1.0000   0.0000
     0.0000   0.0000   0.0000   0.0000   0.0000   0.0000   0.0000   0.0000
     0.0000   0.0000   0.0000   0.0000

          k = 0.0853 0.2463 0.0000 ( 16205 PWs)   bands (ev):

   -87.7485 -53.8725 -53.8682 -53.8514 -18.5829 -17.6359  -7.5017  -7.1649
    -6.2947  -6.0239  -5.1341  -4.5705  -1.9778  -1.7488  -1.3679  -0.4680
    -0.2754   3.6682   3.8682   4.4238   5.2037   5.4933   5.7855   6.2749
     7.2592   7.4898   8.2624   8.5835

     occupation numbers 
     1.0000   1.0000   1.0000   1.0000   1.0000   1.0000   1.0000   1.0000
     1.0000   1.0000   1.0000   1.0000   1.0000   1.0000   1.0000   0.0000
     0.0000   0.0000   0.0000   0.0000   0.0000   0.0000   0.0000   0.0000
     0.0000   0.0000   0.0000   0.0000

          k = 0.0853 0.2955 0.0000 ( 16219 PWs)   bands (ev):

   -87.7484 -53.8743 -53.8688 -53.8511 -18.4528 -17.6094  -7.5030  -7.3333
    -6.2963  -6.2781  -5.3072  -4.6467  -2.0034  -1.6660  -1.3657  -0.4579
    -0.2777   3.9537   4.1272   4.7527   5.1703   5.6717   6.0678   6.6534
     7.3437   7.6425   8.3005   8.6488

     occupation numbers 
     1.0000   1.0000   1.0000   1.0000   1.0000   1.0000   1.0000   1.0000
     1.0000   1.0000   1.0000   1.0000   1.0000   1.0000   1.0000   0.0000
     0.0000   0.0000   0.0000   0.0000   0.0000   0.0000   0.0000   0.0000
     0.0000   0.0000   0.0000   0.0000

          k = 0.0853 0.3448 0.0000 ( 16226 PWs)   bands (ev):

   -87.7483 -53.8761 -53.8693 -53.8508 -18.3134 -17.5871  -7.6794  -7.4184
    -6.4033  -6.2703  -5.4685  -4.7757  -2.0320  -1.6101  -1.3831  -0.4088
    -0.2405   4.1362   4.4662   5.0493   5.2014   5.8725   6.2083   7.0191
     7.5646   7.7618   8.3131   8.7063

     occupation numbers 
     1.0000   1.0000   1.0000   1.0000   1.0000   1.0000   1.0000   1.0000
     1.0000   1.0000   1.0000   1.0000   1.0000   1.0000   1.0000   0.0000
     0.0000   0.0000   0.0000   0.0000   0.0000   0.0000   0.0000   0.0000
     0.0000   0.0000   0.0000   0.0000

          k = 0.0853 0.3940 0.0000 ( 16225 PWs)   bands (ev):

   -87.7482 -53.8778 -53.8698 -53.8506 -18.1719 -17.5728  -7.9346  -7.4900
    -6.3838  -6.2390  -5.6152  -4.9403  -2.0604  -1.5803  -1.4112  -0.3372
    -0.1771   4.1726   4.8709   5.1557   5.5356   5.9433   6.4038   7.2786
     7.8453   7.9852   8.2883   8.5595

     occupation numbers 
     1.0000   1.0000   1.0000   1.0000   1.0000   1.0000   1.0000   1.0000
     1.0000   1.0000   1.0000   1.0000   1.0000   1.0000   1.0000   0.0000
     0.0000   0.0000   0.0000   0.0000   0.0000   0.0000   0.0000   0.0000
     0.0000   0.0000   0.0000   0.0000

          k = 0.0853 0.4433 0.0000 ( 16223 PWs)   bands (ev):

   -87.7481 -53.8792 -53.8703 -53.8503 -18.0362 -17.5703  -8.1843  -7.5573
    -6.3170  -6.1681  -5.7439  -5.1213  -2.0870  -1.5704  -1.4411  -0.2623
    -0.1043   4.1399   5.1510   5.3259   5.8025   6.1832   6.7134   7.3920
     8.0479   8.1323   8.2726   8.6528

     occupation numbers 
     1.0000   1.0000   1.0000   1.0000   1.0000   1.0000   1.0000   1.0000
     1.0000   1.0000   1.0000   1.0000   1.0000   1.0000   1.0000   0.0000
     0.0000   0.0000   0.0000   0.0000   0.0000   0.0000   0.0000   0.0000
     0.0000   0.0000   0.0000   0.0000

          k = 0.0853 0.4925 0.0000 ( 16249 PWs)   bands (ev):

   -87.7480 -53.8803 -53.8706 -53.8502 -17.9149 -17.5827  -8.3867  -7.6074
    -6.2581  -6.0640  -5.8377  -5.3033  -2.1098  -1.5702  -1.4678  -0.1999
    -0.0387   4.1132   5.0279   5.7552   6.0590   6.6218   7.0738   7.4272
     7.7715   8.3199   8.6676   8.7924

     occupation numbers 
     1.0000   1.0000   1.0000   1.0000   1.0000   1.0000   1.0000   1.0000
     1.0000   1.0000   1.0000   1.0000   1.0000   1.0000   1.0000   0.0000
     0.0000   0.0000   0.0000   0.0000   0.0000   0.0000   0.0000   0.0000
     0.0000   0.0000   0.0000   0.0000

          k = 0.0853 0.5418 0.0000 ( 16249 PWs)   bands (ev):

   -87.7480 -53.8810 -53.8708 -53.8501 -17.8193 -17.6083  -8.5171  -7.6372
    -6.2004  -6.0444  -5.8067  -5.4763  -2.1259  -1.5712  -1.4876  -0.1594
     0.0063   4.1105   4.8935   6.1209   6.2887   7.0564   7.2597   7.5575
     7.8192   8.1807   8.6577   8.8373

     occupation numbers 
     1.0000   1.0000   1.0000   1.0000   1.0000   1.0000   1.0000   1.0000
     1.0000   1.0000   1.0000   1.0000   1.0000   1.0000   1.0000   0.0000
     0.0000   0.0000   0.0000   0.0000   0.0000   0.0000   0.0000   0.0000
     0.0000   0.0000   0.0000   0.0000

          k = 0.0853 0.5910 0.0000 ( 16250 PWs)   bands (ev):

   -87.7480 -53.8813 -53.8709 -53.8500 -17.7765 -17.6271  -8.5619  -7.6469
    -6.1559  -6.0876  -5.7063  -5.5993  -2.1318  -1.5712  -1.4953  -0.1455
     0.0222   4.1147   4.8388   6.2934   6.3698   7.1032   7.4362   7.7562
     8.0651   8.0939   8.3032   8.3311

     occupation numbers 
     1.0000   1.0000   1.0000   1.0000   1.0000   1.0000   1.0000   1.0000
     1.0000   1.0000   1.0000   1.0000   1.0000   1.0000   1.0000   0.0000
     0.0000   0.0000   0.0000   0.0000   0.0000   0.0000   0.0000   0.0000
     0.0000   0.0000   0.0000   0.0000

          k = 0.1280 0.2216 0.0000 ( 16215 PWs)   bands (ev):

   -87.7485 -53.8723 -53.8683 -53.8514 -18.5953 -17.6384  -7.5049  -7.1330
    -6.3109  -5.9822  -5.1428  -4.5610  -1.9075  -1.8119  -1.3692  -0.4364
    -0.3207   3.6475   3.8462   4.3956   5.2763   5.6523   5.6872   6.0802
     7.3130   7.3854   8.1824   8.6174

     occupation numbers 
     1.0000   1.0000   1.0000   1.0000   1.0000   1.0000   1.0000   1.0000
     1.0000   1.0000   1.0000   1.0000   1.0000   1.0000   1.0000   0.0000
     0.0000   0.0000   0.0000   0.0000   0.0000   0.0000   0.0000   0.0000
     0.0000   0.0000   0.0000   0.0000

          k = 0.1280 0.2709 0.0000 ( 16211 PWs)   bands (ev):

   -87.7484 -53.8739 -53.8689 -53.8511 -18.4755 -17.6129  -7.4736  -7.2879
    -6.3293  -6.2438  -5.3279  -4.6177  -1.9109  -1.7304  -1.3675  -0.4254
    -0.3584   3.9483   4.0758   4.7041   5.4346   5.6370   6.1087   6.3551
     7.3918   7.5243   8.0116   8.6566

     occupation numbers 
     1.0000   1.0000   1.0000   1.0000   1.0000   1.0000   1.0000   1.0000
     1.0000   1.0000   1.0000   1.0000   1.0000   1.0000   1.0000   0.0000
     0.0000   0.0000   0.0000   0.0000   0.0000   0.0000   0.0000   0.0000
     0.0000   0.0000   0.0000   0.0000

          k = 0.1280 0.3201 0.0000 ( 16213 PWs)   bands (ev):

   -87.7483 -53.8755 -53.8695 -53.8509 -18.3439 -17.5896  -7.5566  -7.4070
    -6.4219  -6.3165  -5.4998  -4.7252  -1.9315  -1.6545  -1.3883  -0.4357
    -0.3011   4.2221   4.3640   5.0471   5.3655   5.8283   6.3987   6.7942
     7.4099   7.6263   8.0456   8.5646

     occupation numbers 
     1.0000   1.0000   1.0000   1.0000   1.0000   1.0000   1.0000   1.0000
     1.0000   1.0000   1.0000   1.0000   1.0000   1.0000   1.0000   0.0000
     0.0000   0.0000   0.0000   0.0000   0.0000   0.0000   0.0000   0.0000
     0.0000   0.0000   0.0000   0.0000

          k = 0.1280 0.3694 0.0000 ( 16227 PWs)   bands (ev):

   -87.7482 -53.8770 -53.8701 -53.8506 -18.2070 -17.5719  -7.7689  -7.4791
    -6.4648  -6.2937  -5.6548  -4.8726  -1.9557  -1.6010  -1.4222  -0.4167
    -0.2168   4.3675   4.7428   5.2613   5.5051   6.0582   6.4852   7.1770
     7.6286   7.7285   8.1319   8.5898

     occupation numbers 
     1.0000   1.0000   1.0000   1.0000   1.0000   1.0000   1.0000   1.0000
     1.0000   1.0000   1.0000   1.0000   1.0000   1.0000   1.0000   0.0000
     0.0000   0.0000   0.0000   0.0000   0.0000   0.0000   0.0000   0.0000
     0.0000   0.0000   0.0000   0.0000

          k = 0.1280 0.4187 0.0000 ( 16230 PWs)   bands (ev):

   -87.7481 -53.8784 -53.8707 -53.8504 -18.0722 -17.5635  -8.0122  -7.5405
    -6.4609  -6.2156  -5.7912  -5.0433  -1.9806  -1.5735  -1.4538  -0.3701
    -0.1352   4.3905   5.1605   5.3428   5.8729   6.1918   6.6483   7.3454
     7.9389   8.0115   8.2209   8.4441

     occupation numbers 
     1.0000   1.0000   1.0000   1.0000   1.0000   1.0000   1.0000   1.0000
     1.0000   1.0000   1.0000   1.0000   1.0000   1.0000   1.0000   0.0000
     0.0000   0.0000   0.0000   0.0000   0.0000   0.0000   0.0000   0.0000
     0.0000   0.0000   0.0000   0.0000

          k = 0.1280 0.4679 0.0000 ( 16227 PWs)   bands (ev):

   -87.7480 -53.8796 -53.8711 -53.8502 -17.9475 -17.5679  -8.2303  -7.5862
    -6.4486  -6.1029  -5.8964  -5.2213  -2.0055  -1.5657  -1.4749  -0.3125
    -0.0710   4.3647   5.3301   5.6091   6.1219   6.5039   6.9772   7.4197
     7.7968   8.2809   8.4952   8.6347

     occupation numbers 
     1.0000   1.0000   1.0000   1.0000   1.0000   1.0000   1.0000   1.0000
     1.0000   1.0000   1.0000   1.0000   1.0000   1.0000   1.0000   0.0000
     0.0000   0.0000   0.0000   0.0000   0.0000   0.0000   0.0000   0.0000
     0.0000   0.0000   0.0000   0.0000

          k = 0.1280 0.5172 0.0000 ( 16235 PWs)   bands (ev):

   -87.7480 -53.8804 -53.8714 -53.8501 -17.8419 -17.5864  -8.3909  -7.6147
    -6.4298  -6.0718  -5.8745  -5.3961  -2.0273  -1.5635  -1.4895  -0.2610
    -0.0304   4.3467   5.2392   6.0261   6.3366   6.9464   7.3193   7.4622
     7.6256   8.3834   8.8002   8.9457

     occupation numbers 
     1.0000   1.0000   1.0000   1.0000   1.0000   1.0000   1.0000   1.0000
     1.0000   1.0000   1.0000   1.0000   1.0000   1.0000   1.0000   0.0000
     0.0000   0.0000   0.0000   0.0000   0.0000   0.0000   0.0000   0.0000
     0.0000   0.0000   0.0000   0.0000

          k = 0.1280 0.5664 0.0000 ( 16229 PWs)   bands (ev):

   -87.7480 -53.8808 -53.8716 -53.8500 -17.7708 -17.6118  -8.4755  -7.6280
    -6.4113  -6.1162  -5.7339  -5.5621  -2.0405  -1.5603  -1.4995  -0.2301
    -0.0123   4.3438   5.1624   6.3808   6.4640   7.0221   7.4074   7.8293
     7.9979   8.1115   8.5237   8.6045

     occupation numbers 
     1.0000   1.0000   1.0000   1.0000   1.0000   1.0000   1.0000   1.0000
     1.0000   1.0000   1.0000   1.0000   1.0000   1.0000   1.0000   0.0000
     0.0000   0.0000   0.0000   0.0000   0.0000   0.0000   0.0000   0.0000
     0.0000   0.0000   0.0000   0.0000

          k = 0.1706 0.2955 0.0000 ( 16235 PWs)   bands (ev):

   -87.7483 -53.8752 -53.8696 -53.8509 -18.3542 -17.5905  -7.5049  -7.4062
    -6.4387  -6.3268  -5.5148  -4.7073  -1.8763  -1.6873  -1.3907  -0.4417
    -0.3285   4.2713   4.3053   5.0299   5.5758   5.7305   6.5153   6.6219
     7.4445   7.5731   7.8309   8.5242

     occupation numbers 
     1.0000   1.0000   1.0000   1.0000   1.0000   1.0000   1.0000   1.0000
     1.0000   1.0000   1.0000   1.0000   1.0000   1.0000   1.0000   0.0000
     0.0000   0.0000   0.0000   0.0000   0.0000   0.0000   0.0000   0.0000
     0.0000   0.0000   0.0000   0.0000

          k = 0.1706 0.3448 0.0000 ( 16241 PWs)   bands (ev):

   -87.7482 -53.8766 -53.8703 -53.8507 -18.2250 -17.5715  -7.6380  -7.4974
    -6.5324  -6.3174  -5.6820  -4.8358  -1.8737  -1.6286  -1.4321  -0.4638
    -0.2409   4.5104   4.6372   5.3453   5.5706   6.0193   6.8062   7.0205
     7.4087   7.5757   7.9215   8.5223

     occupation numbers 
     1.0000   1.0000   1.0000   1.0000   1.0000   1.0000   1.0000   1.0000
     1.0000   1.0000   1.0000   1.0000   1.0000   1.0000   1.0000   0.0000
     0.0000   0.0000   0.0000   0.0000   0.0000   0.0000   0.0000   0.0000
     0.0000   0.0000   0.0000   0.0000

          k = 0.1706 0.3940 0.0000 ( 16229 PWs)   bands (ev):

   -87.7481 -53.8778 -53.8710 -53.8504 -18.0947 -17.5593  -7.8451  -7.5524
    -6.5916  -6.2465  -5.8264  -4.9920  -1.8850  -1.5813  -1.4739  -0.4492
    -0.1591   4.6372   5.0149   5.4735   5.8864   6.3217   6.7805   7.3248
     7.6700   7.6993   8.1418   8.4361

     occupation numbers 
     1.0000   1.0000   1.0000   1.0000   1.0000   1.0000   1.0000   1.0000
     1.0000   1.0000   1.0000   1.0000   1.0000   1.0000   1.0000   0.0000
     0.0000   0.0000   0.0000   0.0000   0.0000   0.0000   0.0000   0.0000
     0.0000   0.0000   0.0000   0.0000

          k = 0.1706 0.4433 0.0000 ( 16230 PWs)   bands (ev):

   -87.7480 -53.8789 -53.8717 -53.8502 -17.9708 -17.5573  -8.0564  -7.5858
    -6.6372  -6.1342  -5.9429  -5.1612  -1.9045  -1.5604  -1.4944  -0.4092
    -0.0990   4.6588   5.3534   5.6629   6.2715   6.5241   6.9057   7.3672
     7.8673   8.0939   8.3418   8.4230

     occupation numbers 
     1.0000   1.0000   1.0000   1.0000   1.0000   1.0000   1.0000   1.0000
     1.0000   1.0000   1.0000   1.0000   1.0000   1.0000   1.0000   0.0000
     0.0000   0.0000   0.0000   0.0000   0.0000   0.0000   0.0000   0.0000
     0.0000   0.0000   0.0000   0.0000

          k = 0.1706 0.4925 0.0000 ( 16233 PWs)   bands (ev):

   -87.7480 -53.8797 -53.8722 -53.8501 -17.8610 -17.5679  -8.2307  -7.6026
    -6.6696  -6.0868  -5.9465  -5.3312  -1.9289  -1.5561  -1.4961  -0.3595
    -0.0664   4.6411   5.5219   5.9585   6.4711   6.8631   7.2905   7.4520
     7.6069   8.4186   8.5949   8.7607

     occupation numbers 
     1.0000   1.0000   1.0000   1.0000   1.0000   1.0000   1.0000   1.0000
     1.0000   1.0000   1.0000   1.0000   1.0000   1.0000   1.0000   0.0000
     0.0000   0.0000   0.0000   0.0000   0.0000   0.0000   0.0000   0.0000
     0.0000   0.0000   0.0000   0.0000

          k = 0.1706 0.5418 0.0000 ( 16233 PWs)   bands (ev):

   -87.7479 -53.8802 -53.8725 -53.8500 -17.7753 -17.5901  -8.3439  -7.6087
    -6.6874  -6.1404  -5.8079  -5.4955  -1.9500  -1.5484  -1.4992  -0.3171
    -0.0562   4.6281   5.5276   6.3191   6.6033   7.1115   7.3278   7.7651
     7.8563   8.3222   8.7306   8.9618

     occupation numbers 
     1.0000   1.0000   1.0000   1.0000   1.0000   1.0000   1.0000   1.0000
     1.0000   1.0000   1.0000   1.0000   1.0000   1.0000   1.0000   0.0000
     0.0000   0.0000   0.0000   0.0000   0.0000   0.0000   0.0000   0.0000
     0.0000   0.0000   0.0000   0.0000

          k = 0.1706 0.5910 0.0000 ( 16227 PWs)   bands (ev):

   -87.7479 -53.8803 -53.8726 -53.8499 -17.7371 -17.6065  -8.3830  -7.6099
    -6.6927  -6.1634  -5.6565  -5.6516  -1.9583  -1.5425  -1.5028  -0.2999
    -0.0555   4.6248   5.5124   6.6314   6.6873   6.7553   7.7442   7.8628
     8.2985   8.3238   8.3923   8.4301

     occupation numbers 
     1.0000   1.0000   1.0000   1.0000   1.0000   1.0000   1.0000   1.0000
     1.0000   1.0000   1.0000   1.0000   1.0000   1.0000   1.0000   0.0000
     0.0000   0.0000   0.0000   0.0000   0.0000   0.0000   0.0000   0.0000
     0.0000   0.0000   0.0000   0.0000

          k = 0.2133 0.3694 0.0000 ( 16245 PWs)   bands (ev):

   -87.7481 -53.8776 -53.8712 -53.8504 -18.1024 -17.5579  -7.7558  -7.5793
    -6.6467  -6.2569  -5.8393  -4.9740  -1.8432  -1.5875  -1.4845  -0.4783
    -0.1680   4.7841   4.9094   5.5312   5.8993   6.3126   7.1587   7.2721
     7.3548   7.5350   8.0739   8.4581

     occupation numbers 
     1.0000   1.0000   1.0000   1.0000   1.0000   1.0000   1.0000   1.0000
     1.0000   1.0000   1.0000   1.0000   1.0000   1.0000   1.0000   0.0000
     0.0000   0.0000   0.0000   0.0000   0.0000   0.0000   0.0000   0.0000
     0.0000   0.0000   0.0000   0.0000

          k = 0.2133 0.4187 0.0000 ( 16230 PWs)   bands (ev):

   -87.7480 -53.8784 -53.8721 -53.8502 -17.9829 -17.5517  -7.9126  -7.6155
    -6.7603  -6.1517  -5.9683  -5.1294  -1.8382  -1.5511  -1.5204  -0.4646
    -0.1154   4.9355   5.1761   5.7691   6.3265   6.6760   7.0138   7.3329
     7.6734   7.8375   8.2999   8.3865

     occupation numbers 
     1.0000   1.0000   1.0000   1.0000   1.0000   1.0000   1.0000   1.0000
     1.0000   1.0000   1.0000   1.0000   1.0000   1.0000   1.0000   0.0000
     0.0000   0.0000   0.0000   0.0000   0.0000   0.0000   0.0000   0.0000
     0.0000   0.0000   0.0000   0.0000

          k = 0.2133 0.4679 0.0000 ( 16227 PWs)   bands (ev):

   -87.7480 -53.8790 -53.8728 -53.8501 -17.8736 -17.5558  -8.0661  -7.6190
    -6.8603  -6.0875  -6.0069  -5.2894  -1.8541  -1.5492  -1.5074  -0.4297
    -0.0928   4.9473   5.4679   6.0937   6.6913   6.8875   7.1925   7.3954
     7.6602   8.2486   8.4343   8.6307

     occupation numbers 
     1.0000   1.0000   1.0000   1.0000   1.0000   1.0000   1.0000   1.0000
     1.0000   1.0000   1.0000   1.0000   1.0000   1.0000   1.0000   0.0000
     0.0000   0.0000   0.0000   0.0000   0.0000   0.0000   0.0000   0.0000
     0.0000   0.0000   0.0000   0.0000

          k = 0.2133 0.5172 0.0000 ( 16236 PWs)   bands (ev):

   -87.7479 -53.8794 -53.8734 -53.8499 -17.7820 -17.5715  -8.1838  -7.6065
    -6.9362  -6.1559  -5.8758  -5.4445  -1.8788  -1.5398  -1.4949  -0.3868
    -0.0964   4.9282   5.7243   6.3412   6.7710   7.1868   7.4196   7.6700
     7.6925   8.3503   8.6236   9.0188

     occupation numbers 
     1.0000   1.0000   1.0000   1.0000   1.0000   1.0000   1.0000   1.0000
     1.0000   1.0000   1.0000   1.0000   1.0000   1.0000   1.0000   0.0000
     0.0000   0.0000   0.0000   0.0000   0.0000   0.0000   0.0000   0.0000
     0.0000   0.0000   0.0000   0.0000

          k = 0.2133 0.5664 0.0000 ( 16253 PWs)   bands (ev):

   -87.7479 -53.8797 -53.8737 -53.8499 -17.7203 -17.5933  -8.2471  -7.5939
    -6.9781  -6.1956  -5.7381  -5.5902  -1.8960  -1.5243  -1.4951  -0.3546
    -0.1094   4.9158   5.8612   6.5176   6.8351   7.0281   7.7237   8.0941
     8.1530   8.2257   8.5575   8.7878

     occupation numbers 
     1.0000   1.0000   1.0000   1.0000   1.0000   1.0000   1.0000   1.0000
     1.0000   1.0000   1.0000   1.0000   1.0000   1.0000   1.0000   0.0000
     0.0000   0.0000   0.0000   0.0000   0.0000   0.0000   0.0000   0.0000
     0.0000   0.0000   0.0000   0.0000

          k = 0.2559 0.4433 0.0000 ( 16237 PWs)   bands (ev):

   -87.7480 -53.8787 -53.8731 -53.8501 -17.8780 -17.5516  -7.9799  -7.6450
    -6.9348  -6.0799  -6.0365  -5.2750  -1.8252  -1.5453  -1.5148  -0.4551
    -0.1026   5.1793   5.2927   6.1682   6.8036   7.0978   7.1095   7.2526
     7.6346   8.1043   8.5091   8.5349

     occupation numbers 
     1.0000   1.0000   1.0000   1.0000   1.0000   1.0000   1.0000   1.0000
     1.0000   1.0000   1.0000   1.0000   1.0000   1.0000   1.0000   0.0000
     0.0000   0.0000   0.0000   0.0000   0.0000   0.0000   0.0000   0.0000
     0.0000   0.0000   0.0000   0.0000

          k = 0.2559 0.4925 0.0000 ( 16239 PWs)   bands (ev):

   -87.7479 -53.8789 -53.8740 -53.8499 -17.7862 -17.5611  -8.0442  -7.6351
    -7.0908  -6.1621  -5.9168  -5.4175  -1.8397  -1.5357  -1.4908  -0.4253
    -0.1205   5.1809   5.6251   6.5572   6.9552   7.2487   7.4087   7.5457
     7.6099   8.1959   8.7115   8.9053

     occupation numbers 
     1.0000   1.0000   1.0000   1.0000   1.0000   1.0000   1.0000   1.0000
     1.0000   1.0000   1.0000   1.0000   1.0000   1.0000   1.0000   0.0000
     0.0000   0.0000   0.0000   0.0000   0.0000   0.0000   0.0000   0.0000
     0.0000   0.0000   0.0000   0.0000

          k = 0.2559 0.5418 0.0000 ( 16259 PWs)   bands (ev):

   -87.7479 -53.8789 -53.8747 -53.8499 -17.7145 -17.5802  -8.0912  -7.6016
    -7.2084  -6.2138  -5.7999  -5.5485  -1.8596  -1.5131  -1.4809  -0.3870
    -0.1551   5.1646   5.9726   6.6070   7.0053   7.2988   7.5805   7.9227
     8.0803   8.1823   8.7963   9.1921

     occupation numbers 
     1.0000   1.0000   1.0000   1.0000   1.0000   1.0000   1.0000   1.0000
     1.0000   1.0000   1.0000   1.0000   1.0000   1.0000   1.0000   0.0000
     0.0000   0.0000   0.0000   0.0000   0.0000   0.0000   0.0000   0.0000
     0.0000   0.0000   0.0000   0.0000

          k = 0.2559 0.5910 0.0000 ( 16253 PWs)   bands (ev):

   -87.7479 -53.8789 -53.8749 -53.8498 -17.6813 -17.5954  -8.1084  -7.5806
    -7.2567  -6.2316  -5.7107  -5.6423  -1.8680  -1.4989  -1.4822  -0.3663
    -0.1753   5.1578   6.2134   6.4463   7.0720   7.2499   7.8240   7.9283
     8.3350   8.5809   8.7270   8.7463

     occupation numbers 
     1.0000   1.0000   1.0000   1.0000   1.0000   1.0000   1.0000   1.0000
     1.0000   1.0000   1.0000   1.0000   1.0000   1.0000   1.0000   0.0000
     0.0000   0.0000   0.0000   0.0000   0.0000   0.0000   0.0000   0.0000
     0.0000   0.0000   0.0000   0.0000

          k = 0.2986 0.5172 0.0000 ( 16255 PWs)   bands (ev):

   -87.7479 -53.8786 -53.8751 -53.8498 -17.7133 -17.5749  -8.0012  -7.6293
    -7.2982  -6.2195  -5.8228  -5.5340  -1.8479  -1.5092  -1.4741  -0.3971
    -0.1734   5.2784   5.9191   6.8384   7.0763   7.3532   7.4074   7.9436
     7.9754   8.1593   9.0049   9.1949

     occupation numbers 
     1.0000   1.0000   1.0000   1.0000   1.0000   1.0000   1.0000   1.0000
     1.0000   1.0000   1.0000   1.0000   1.0000   1.0000   1.0000   0.0000
     0.0000   0.0000   0.0000   0.0000   0.0000   0.0000   0.0000   0.0000
     0.0000   0.0000   0.0000   0.0000

          k = 0.2986 0.5664 0.0000 ( 16279 PWs)   bands (ev):

   -87.7479 -53.8782 -53.8760 -53.8498 -17.6612 -17.5962  -7.9625  -7.5944
    -7.4529  -6.2491  -5.7389  -5.6304  -1.8576  -1.4852  -1.4691  -0.3575
    -0.2291   5.3021   6.2798   6.6253   7.2510   7.3684   7.5568   7.8621
     8.4843   8.6504   9.0367   9.1751

     occupation numbers 
     1.0000   1.0000   1.0000   1.0000   1.0000   1.0000   1.0000   1.0000
     1.0000   1.0000   1.0000   1.0000   1.0000   1.0000   1.0000   0.0000
     0.0000   0.0000   0.0000   0.0000   0.0000   0.0000   0.0000   0.0000
     0.0000   0.0000   0.0000   0.0000

          k = 0.3412 0.5910 0.0000 ( 16275 PWs)   bands (ev):

   -87.7479 -53.8771 -53.8771 -53.8498 -17.6223 -17.6223  -7.8674  -7.5895
    -7.5895  -6.2609  -5.6887  -5.6887  -1.8585  -1.4691  -1.4691  -0.3016
    -0.3016   5.3443   6.5353   6.5353   7.2302   7.3488   7.7279   7.7279
     8.9576   8.9576   9.1298   9.1874

     occupation numbers 
     1.0000   1.0000   1.0000   1.0000   1.0000   1.0000   1.0000   1.0000
     1.0000   1.0000   1.0000   1.0000   1.0000   1.0000   1.0000   0.0000
     0.0000   0.0000   0.0000   0.0000   0.0000   0.0000   0.0000   0.0000
     0.0000   0.0000   0.0000   0.0000

     the Fermi energy is    -0.5062 ev
     (compare with:    -0.8306 eV, computed in scf)

     Writing all to output data dir ./FeCl2.save/
 
     init_run     :      0.99s CPU      1.52s WALL (       1 calls)
     electrons    :     69.42s CPU     73.56s WALL (       1 calls)

     Called by init_run:
     wfcinit      :      0.00s CPU      0.00s WALL (       1 calls)
     wfcinit:atom :      0.03s CPU      0.03s WALL (      61 calls)
     wfcinit:wfcr :      1.79s CPU      1.87s WALL (      61 calls)
     potinit      :      0.11s CPU      0.23s WALL (       1 calls)
     hinit0       :      0.65s CPU      0.91s WALL (       1 calls)

     Called by electrons:
     c_bands      :     69.40s CPU     73.53s WALL (       1 calls)
     v_of_rho     :      0.03s CPU      0.05s WALL (       1 calls)
     v_h          :      0.00s CPU      0.00s WALL (       1 calls)
     v_xc         :      0.03s CPU      0.05s WALL (       1 calls)
     newd         :      0.15s CPU      0.23s WALL (       1 calls)
     PAW_pot      :      0.07s CPU      0.10s WALL (       1 calls)

     Called by c_bands:
     init_us_2    :      0.04s CPU      0.05s WALL (      61 calls)
     init_us_2:cp :      0.04s CPU      0.05s WALL (      61 calls)
     cegterg      :     66.77s CPU     67.34s WALL (     202 calls)

     Called by sum_band:

     Called by *egterg:
     cdiaghg      :      3.92s CPU      4.00s WALL (    3432 calls)
     cegterg:over :      4.94s CPU      4.98s WALL (    3371 calls)
     cegterg:upda :      2.97s CPU      2.98s WALL (    3371 calls)
     cegterg:last :      6.65s CPU      6.66s WALL (    1705 calls)
     h_psi        :     45.36s CPU     45.85s WALL (    3634 calls)
     s_psi        :      2.60s CPU      2.61s WALL (    3634 calls)
     g_psi        :      0.52s CPU      0.52s WALL (    3371 calls)

     Called by h_psi:
     h_psi:calbec :      3.82s CPU      3.86s WALL (    3634 calls)
     vloc_psi     :     38.39s CPU     38.82s WALL (    3634 calls)
     add_vuspsi   :      2.82s CPU      2.84s WALL (    3634 calls)

     General routines
     calbec       :      3.81s CPU      3.85s WALL (    3634 calls)
     fft          :      0.04s CPU      0.20s WALL (      13 calls)
     ffts         :      0.00s CPU      0.00s WALL (       1 calls)
     fftw         :     31.58s CPU     31.94s WALL (   96082 calls)
     interpolate  :      0.00s CPU      0.00s WALL (       1 calls)
     davcio       :      0.08s CPU      6.03s WALL (     122 calls)
 
     Parallel routines

     PAW routines
     PAW_pot      :      0.07s CPU      0.10s WALL (       1 calls)
 
     PWSCF        :   1m13.90s CPU   1m28.56s WALL

 
   This run was terminated on:  16:52:31  23Sep2023            

=------------------------------------------------------------------------------=
   JOB DONE.
=------------------------------------------------------------------------------=
